
units lj                  # Use reduced LJ style units
atom_style atomic         # Uncharged point particles
atom_modify map hash      # Needed for indexing of clusters etc
                          # Used to be able to find where atoms are in relation to each other.

# Define a lattice with which to populate the simulation cell. With units
# set to 'lj' the second argument to the lattice command is the reduced
# density rho* and the spacings are multiples of that required to acheive
# that density. Also define a simulation cell called 'box' in lattice units
# and fill it with atoms. Here we're creating a box which is ten lattice
# constants in each direction.
lattice fcc 1.0 spacing 1 1 1                 # All equal sizes - gives the right reduced density.
Lattice spacing in x,y,z = 1.5874011 1.5874011 1.5874011

region box block 0 6 0 6 0 6 units lattice # Defines a region, "box", in lattice units
create_box 1 box                              # Creates a simulation box as specified above,
Created orthogonal box = (0.0000000 0.0000000 0.0000000) to (9.5244063 9.5244063 9.5244063)
  2 by 2 by 3 MPI processor grid
                                              # with one type of atom
create_atoms 1 box                            # Creates particles on lattice points
Created 864 atoms
  using lattice units in orthogonal box = (0.0000000 0.0000000 0.0000000) to (9.5244063 9.5244063 9.5244063)
  create_atoms CPU = 0.001 seconds


# Set the mass of the first (and only) atom type.
mass 1 1.0

# Lennard-Jones interactions between particles, 3.5 sigma cut-off. Apply
# long range tail corrections to energy and pressure and set all coefficients
# to unity since we work in reduced units here. Note that this doesn't shift
# the potential such that it goes to zero at the cutoff. That would require
# pair_modify('shift', 'yes').
pair_style lj/cut  3.5      # non-GPU version
pair_modify tail  yes
pair_coeff 1  1  1.0  1.0   # Intearaction between 1 and 1 set with epsilon = 1 and sigma = 1

write_data data.*
System init for write_data ...
Neighbor list info ...
  update every 1 steps, delay 10 steps, check yes
  max neighbors/atom: 2000, page size: 100000
  master list distance cutoff = 3.8
  ghost atom cutoff = 3.8
  binsize = 1.9, bins = 6 6 6
  1 neighbor lists, perpetual/occasional/extra = 1 0 0
  (1) pair lj/cut, perpetual
      attributes: half, newton on
      pair build: half/bin/atomonly/newton
      stencil: half/bin/3d
      bin: standard

#############################
#   M E L T   S Y S T E M   #
#############################

velocity all create 2.4 2750902 mom yes dist gaussian # Assign velocities
                                                    # Temperature 2.4, random number seed, zero linear momentum
						                                                        # Gaussian distribution

timestep 0.002   # simulation timestep
thermo 100       # output thermodynamic data every 100 steps

# Define a fix  in this case with index 1 applied to all
# particles in the simulation. This fix is for simulations
# in the anisotropic NPT ensemble. Note that we use the MTK
# correction.
fix 1 all npt temp 2.4 2.4 0.1 iso 5.68 5.68 0.5 mtk yes tchain 5 pchain 5 # Use NPT ensemble
                                                                         # Set temperature and pressure and damping
                                                                         # Numbers of thermostats in chain and in barostat
run 1000         # run for 10000 steps
Per MPI rank memory allocation (min/avg/max) = 3.633 | 3.633 | 3.634 Mbytes
Step Temp E_pair E_mol TotEng Press Volume 
       0          2.4   -8.3859253            0    -4.790092     -2.24275          864 
     100    1.3007594   -6.4407842            0   -4.4919034    5.3582762    891.69205 
     200    1.5828213   -6.0796178            0   -3.7081338    6.4338598    907.46239 
     300    1.7629056     -5.73851            0   -3.0972122    5.5953229    954.02439 
     400    1.8733232   -5.2785237            0   -2.4717912    6.0585808    994.36537 
     500      2.02574   -4.9360708            0   -1.9009777    5.7478153    1042.8978 
     600    2.2112838   -4.6895875            0   -1.3765009    5.7138268    1079.0368 
     700    2.3146746   -4.4629638            0  -0.99497044    5.6088298    1118.0222 
     800    2.4734008     -4.39503            0   -0.6892229    5.7937797    1123.7282 
     900    2.4206618   -4.2767239            0  -0.64993368    5.5531987    1146.9555 
    1000    2.3618098   -4.2459295            0  -0.70731524    5.7000582    1143.3852 
Loop time of 0.200629 on 12 procs for 1000 steps with 864 atoms

Performance: 861291.795 tau/day, 4984.328 timesteps/s
99.8% CPU use with 12 MPI tasks x no OpenMP threads

MPI task timing breakdown:
Section |  min time  |  avg time  |  max time  |%varavg| %total
---------------------------------------------------------------
Pair    | 0.068649   | 0.078819   | 0.10545    |   3.8 | 39.29
Neigh   | 0.01206    | 0.01325    | 0.015784   |   1.0 |  6.60
Comm    | 0.06086    | 0.089872   | 0.10072    |   3.9 | 44.80
Output  | 0.00022943 | 0.00023777 | 0.00029314 |   0.0 |  0.12
Modify  | 0.016318   | 0.016769   | 0.017088   |   0.2 |  8.36
Other   |            | 0.001681   |            |       |  0.84

Nlocal:        72.0000 ave          80 max          66 min
Histogram: 2 1 2 2 1 0 2 0 0 2
Nghost:        1314.75 ave        1327 max        1295 min
Histogram: 1 0 0 2 3 0 0 1 2 3
Neighs:        6211.67 ave        7136 max        5326 min
Histogram: 2 0 0 2 1 4 1 0 0 2

Total # of neighbors = 74540
Ave neighs/atom = 86.273148
Neighbor list builds = 80
Dangerous builds = 2

# Equilibrate just above the melting temperature to avoid step fn in T

fix 1 all npt temp 1.25 1.25 0.1 iso 5.68 5.68 0.5 mtk yes tchain 5 pchain 5
run 1000
Per MPI rank memory allocation (min/avg/max) = 3.634 | 3.634 | 3.634 Mbytes
Step Temp E_pair E_mol TotEng Press Volume 
    1000    2.3618098   -4.2459295            0  -0.70731524    5.7000582    1143.3852 
    1100    1.8617945   -4.5967525            0    -1.807293    5.9593679    1083.5566 
    1200      1.66126   -5.0091582            0   -2.5201524    5.9308167    1028.0056 
    1300    1.4533368   -5.3154554            0   -3.1379734    5.5185254    997.93023 
    1400    1.3100587   -5.5224566            0    -3.559643    5.2858775     978.0358 
    1500    1.3306301   -5.7450087            0   -3.7513736    5.2687861    956.68836 
    1600    1.2302857    -5.777427            0   -3.9341343     5.385203    950.58576 
    1700    1.2545134   -5.8251615            0   -3.9455694    5.6370291    940.07281 
    1800    1.2669685   -5.8434457            0   -3.9451925    6.1076728    931.13358 
    1900    1.2975362   -5.8185374            0   -3.8744858    5.5765884    942.23221 
    2000    1.2225624   -5.8503078            0   -4.0185867    5.1330896    948.19804 
Loop time of 0.175353 on 12 procs for 1000 steps with 864 atoms

Performance: 985439.065 tau/day, 5702.772 timesteps/s
99.9% CPU use with 12 MPI tasks x no OpenMP threads

MPI task timing breakdown:
Section |  min time  |  avg time  |  max time  |%varavg| %total
---------------------------------------------------------------
Pair    | 0.069977   | 0.077772   | 0.091029   |   2.1 | 44.35
Neigh   | 0.010017   | 0.010798   | 0.012192   |   0.6 |  6.16
Comm    | 0.054616   | 0.069164   | 0.077359   |   2.4 | 39.44
Output  | 0.00018321 | 0.00019163 | 0.00024775 |   0.0 |  0.11
Modify  | 0.015201   | 0.015551   | 0.015824   |   0.1 |  8.87
Other   |            | 0.001877   |            |       |  1.07

Nlocal:        72.0000 ave          79 max          65 min
Histogram: 1 1 0 4 0 1 1 3 0 1
Nghost:        1466.08 ave        1476 max        1447 min
Histogram: 1 1 0 0 2 0 0 4 1 3
Neighs:        7466.67 ave        8131 max        6694 min
Histogram: 1 0 2 0 3 1 3 0 0 2

Total # of neighbors = 89600
Ave neighs/atom = 103.70370
Neighbor list builds = 67
Dangerous builds = 0


# Small amount of linear quench

fix 1 all npt temp 1.25 ${temp} 0.1 iso 5.68 5.68 0.5 mtk yes tchain 5 pchain 5
fix 1 all npt temp 1.25 0.67 0.1 iso 5.68 5.68 0.5 mtk yes tchain 5 pchain 5
run 2000
Per MPI rank memory allocation (min/avg/max) = 3.634 | 3.634 | 3.634 Mbytes
Step Temp E_pair E_mol TotEng Press Volume 
    2000    1.2225624   -5.8503078            0   -4.0185867    5.1330896    948.19804 
    2100    1.2402451   -5.8681249            0   -4.0099104    5.3964807    941.01139 
    2200    1.2124145   -5.9176034            0   -4.1010864     5.749405    929.20127 
    2300     1.178432   -5.9323563            0   -4.1667543    6.3279376     917.7287 
    2400    1.1651626   -5.9890924            0   -4.2433715    5.8752029    920.38861 
    2500    1.1015965   -6.0057888            0   -4.3553065    5.9006938       916.46 
    2600    1.0694923   -6.0701561            0   -4.4677743    5.6459709    915.06542 
    2700    1.0640965   -6.1339446            0   -4.5396472    5.5191843    912.24341 
    2800    1.0088714   -6.1188936            0   -4.6073381    5.8340767    908.27028 
    2900    1.0300656   -6.1892876            0   -4.6459775    5.8728761    901.13448 
    3000   0.98801255   -6.2013233            0   -4.7210197    5.9914651    897.27206 
    3100   0.98338373   -6.3102529            0   -4.8368846    5.7753153    892.65637 
    3200   0.90427307   -6.3264997            0     -4.97166    5.5584886    893.16065 
    3300   0.87939272   -6.3963168            0   -5.0787544    5.5281233    887.78992 
    3400    0.8696518   -6.4730041            0   -5.1700362    5.7033988    878.45419 
    3500   0.82930771    -6.501015            0   -5.2584932    5.7504717    875.67531 
    3600   0.81506821    -6.545813            0   -5.3246258    5.6606411    873.51685 
    3700   0.78180492   -6.5753916            0   -5.4040415    5.7759322    868.63647 
    3800   0.73973193    -6.627868            0   -5.5195543    5.4957632    868.32603 
    3900   0.70288771   -6.6956678            0   -5.6425565    5.2463062    866.06521 
    4000   0.71028321   -6.7447315            0   -5.6805399    5.3881693    860.70528 
Loop time of 0.349718 on 12 procs for 2000 steps with 864 atoms

Performance: 988224.372 tau/day, 5718.891 timesteps/s
99.9% CPU use with 12 MPI tasks x no OpenMP threads

MPI task timing breakdown:
Section |  min time  |  avg time  |  max time  |%varavg| %total
---------------------------------------------------------------
Pair    | 0.15747    | 0.17121    | 0.1842     |   2.0 | 48.96
Neigh   | 0.017098   | 0.018117   | 0.019283   |   0.5 |  5.18
Comm    | 0.11306    | 0.12617    | 0.14029    |   2.4 | 36.08
Output  | 0.00037531 | 0.00039101 | 0.00049725 |   0.0 |  0.11
Modify  | 0.028629   | 0.029429   | 0.029985   |   0.2 |  8.42
Other   |            | 0.0044     |            |       |  1.26

Nlocal:        72.0000 ave          75 max          69 min
Histogram: 2 2 0 0 0 2 4 0 0 2
Nghost:        1571.25 ave        1591 max        1554 min
Histogram: 1 0 4 0 3 1 0 1 0 2
Neighs:        8310.58 ave        9103 max        7454 min
Histogram: 1 0 3 1 1 1 1 1 2 1

Total # of neighbors = 99727
Ave neighs/atom = 115.42477
Neighbor list builds = 109
Dangerous builds = 0

#############################
# F R E E Z E  S Y S T E M  #
#############################

# Define solid atoms. This closely follows ten Wolde  Ruiz-Montero and Frenkel  Faraday Discuss  1996  104  93-110
# Compute components of the per-atom q6 vector
compute q6 all orientorder/atom degrees 1 6 components 6 nnn NULL cutoff 1.3 # compute the Q6 parameter.
                                                                             # Use all neighbours within 1.3 unit cell.

# get number of connections
compute coord_number all coord/atom orientorder q6 0.5

# An atom is solid if it has 8 or more connections (of a possible 14)
variable is_solid atom c_coord_number>=8
group solid dynamic all var is_solid    # Must be dynamic to update
dynamic group solid defined

# do clustering
compute cluster solid cluster/atom 1.3 # Create a cluster where all atoms within are solid and max 1.3 units from another member

# define chunks one chunk per cluster
compute clus_chunks solid chunk/atom c_cluster nchunk every compress yes  # Says which atoms are in which chunk

# count the size of each chunk
compute size_chunks solid property/chunk clus_chunks count


# Find the maximum entry in the vector of chunk sizes
variable max_n equal max(c_size_chunks)


# Thermo style which includes this variable
# thermo_style custom step temp pe vol v_max_n

thermo ${N}  # Print the thermo information every 100 steps
thermo 100  

# Reset the npt fix at a lower temperature (below freezing)

compute myRDF all rdf 100
fix 2 all ave/time 1 50 100 c_myRDF[*] file pcf.rdf mode vector


compute msd all msd com yes
variable twopoint equal c_msd[4]/6/(step*dt+1.0e-6)
fix 9 all vector 10 c_msd[4]
variable fit equal slope(f_9)/6/(10*dt)
thermo_style custom step temp pe c_msd[4] v_twopoint v_fit v_max_n


fix 1  all npt temp  ${temp} ${temp}  0.1  iso  5.68  5.68  0.5  mtk yes tchain  5  pchain  5
fix 1  all npt temp  0.67 ${temp}  0.1  iso  5.68  5.68  0.5  mtk yes tchain  5  pchain  5
fix 1  all npt temp  0.67 0.67  0.1  iso  5.68  5.68  0.5  mtk yes tchain  5  pchain  5

dump dmp2 all dcd ${N} traj.dcd
dump dmp2 all dcd 100 traj.dcd
dump dmp3 all dcd ${N} traj_unwrap.dcd
dump dmp3 all dcd 100 traj_unwrap.dcd
dump_modify dmp3 unwrap yes


# fix rnuntil all halt ${N} v_max_n >= 3980 error soft message no   # Stop when solidified

run 100000 # 5000000  # Run for this many steps
Neighbor list info ...
  update every 1 steps, delay 10 steps, check yes
  max neighbors/atom: 2000, page size: 100000
  master list distance cutoff = 3.8
  ghost atom cutoff = 3.8
  binsize = 1.9, bins = 6 6 6
  5 neighbor lists, perpetual/occasional/extra = 1 4 0
  (1) pair lj/cut, perpetual
      attributes: half, newton on
      pair build: half/bin/atomonly/newton
      stencil: half/bin/3d
      bin: standard
  (2) compute orientorder/atom, occasional
      attributes: full, newton on
      pair build: full/bin/atomonly
      stencil: full/bin/3d
      bin: standard
  (3) compute coord/atom, occasional
      attributes: full, newton on
      pair build: full/bin/atomonly
      stencil: full/bin/3d
      bin: standard
  (4) compute cluster/atom, occasional
      attributes: full, newton on
      pair build: full/bin/atomonly
      stencil: full/bin/3d
      bin: standard
  (5) compute rdf, occasional, copy from (1)
      attributes: half, newton on
      pair build: copy
      stencil: none
      bin: none
Per MPI rank memory allocation (min/avg/max) = 9.702 | 9.705 | 9.708 Mbytes
Step Temp PotEng c_msd[4] v_twopoint v_fit v_max_n 
    4000   0.71028321   -6.7447315 7.8886091e-31  1.64346e-32 8.3333333e+20            5 
    4100   0.68933949   -6.7598916  0.030604027 0.00062203299  0.027726833            2 
    4200   0.67515785   -6.7598071  0.049428425 0.00098072261  0.021788955            4 
    4300   0.65803863   -6.8011522  0.066040681  0.001279858  0.018109598            4 
    4400   0.65529462   -6.7975919  0.078557651 0.0014878341  0.016067072            3 
    4500   0.68230693    -6.811356  0.088870319 0.0016457465  0.014269398            7 
    4600   0.64818156   -6.7471992  0.098633696 0.0017868421  0.012876843            4 
    4700   0.65695313   -6.8148712   0.11186588 0.0019834374  0.012072031            4 
    4800   0.64722526   -6.8233407   0.12120701 0.0021042882  0.011543269            6 
    4900   0.67575601   -6.8368798   0.12965626 0.0022050382    0.0109953           21 
    5000   0.68243787   -6.8140006    0.1345481  0.002242468  0.010409002           15 
    5100   0.68166304   -6.8035026   0.14080795 0.0023007832 0.0098312727           13 
    5200   0.67892976   -6.8773751   0.14976453 0.0024000723 0.0093778892            4 
    5300   0.63041725   -6.8440974   0.16101221 0.0025316384 0.0090619782            7 
    5400   0.66059973   -6.8426313   0.17039841 0.0026296049 0.0088595315           14 
    5500   0.63077435   -6.8390848   0.18011049 0.0027289466 0.0086769393            6 
    5600   0.71709718   -6.8475595   0.18699999 0.0027827376 0.0085347206            6 
    5700   0.68217237   -6.8503075     0.193461 0.0028283769 0.0083812116            5 
    5800   0.65515666    -6.890495   0.19546016 0.0028083354 0.0081855396            7 
    5900    0.6663429   -6.8786866   0.19757596 0.0027906206  0.007948869            8 
    6000   0.68614535   -6.8579964   0.20449313 0.0028401821 0.0076988665            7 
    6100   0.65231541   -6.8251802    0.2173583 0.0029693754  0.007542628           17 
    6200   0.67596821   -6.8801087   0.22142204 0.0029761024 0.0074076232           16 
    6300   0.68531797   -6.8769196   0.22084456  0.002921224  0.007251035            9 
    6400   0.66971122   -6.8903094   0.22717445 0.0029580004 0.0070711118           10 
    6500   0.65309443   -6.9050999   0.23084302 0.0029595257 0.0069119521           17 
    6600   0.64428465   -6.8840378    0.2362249 0.0029826375 0.0067628397           29 
    6700   0.68702047   -6.8250561   0.23788294 0.0029587428 0.0066029015            8 
    6800   0.69268924   -6.8933677   0.23638426 0.0028968658 0.0064326609           14 
    6900    0.6808009   -6.8958077   0.24040874  0.002903487 0.0062584527           21 
    7000   0.65979318   -6.9196114   0.25164373 0.0029957584 0.0061209212           16 
    7100   0.67379293   -6.9269923   0.25132221 0.0029497909 0.0059980992           11 
    7200   0.67103102   -6.9383828   0.25374847 0.0029369033 0.0058610122            8 
    7300   0.67627459   -6.8918537   0.26156078 0.0029858535 0.0057416582            9 
    7400   0.70152312   -6.8794827   0.27258621 0.0030696643 0.0056554478           13 
    7500   0.67425632   -6.9289653   0.27677641 0.0030752933 0.0055857273           50 
    7600   0.69701852   -6.9231727   0.28219709 0.0030942661 0.0055209174           13 
    7700    0.6713155   -6.9128862   0.28762344 0.0031128076 0.0054643371           27 
    7800   0.67890368   -6.8837189   0.29042586 0.0031028402 0.0053979698           31 
    7900   0.67303799   -6.9120234    0.2937842 0.0030989893 0.0053367298           11 
    8000   0.66241361    -6.943621   0.29803617 0.0031045432 0.0052751927           24 
    8100   0.64099541   -6.9087836   0.30490452 0.0031368775 0.0052201759           33 
    8200   0.67004026   -6.9100119   0.30331058 0.0030824244 0.0051619791           16 
    8300   0.64716613   -6.8646681   0.30259041 0.0030380562 0.0050906908           16 
    8400    0.6595073    -6.891806   0.30442908 0.0030201296 0.0050143593           37 
    8500   0.67396191   -6.9169214   0.31712985 0.0031091159 0.0049548641           87 
    8600   0.64463411    -6.895251   0.32107582 0.0031111997  0.004909969           86 
    8700   0.66421844    -6.899717   0.31912184 0.0030567225 0.0048553798           69 
    8800   0.67431106   -6.9051649   0.31999187 0.0030302259 0.0047934288           41 
    8900   0.67253147   -6.8540243   0.32175844 0.0030127193 0.0047312007           61 
    9000   0.67866495   -6.8360556   0.33408772 0.0030934046 0.0046817199           68 
    9100   0.67655487   -6.8661962   0.34054628 0.0031185555 0.0046412408           35 
    9200   0.65292755    -6.881967   0.33481301 0.0030327264 0.0045961652           37 
    9300   0.66592118   -6.8892711   0.33214089 0.0029761727 0.0045384756           34 
    9400   0.68457099   -6.8437437   0.33833154 0.0029993929 0.0044804574           31 
    9500   0.66448625   -6.8764466   0.33947622 0.0029778614 0.0044309622           21 
    9600   0.66841821   -6.8856253   0.34131001 0.0029627604 0.0043756199           20 
    9700   0.67885411   -6.8913571   0.34189362 0.0029372302 0.0043206726           12 
    9800   0.69651557   -6.8522015   0.34610983 0.0029431106  0.004267456            9 
    9900   0.65591258    -6.828108    0.3549312 0.0029876362  0.004221099           26 
   10000   0.63660555   -6.8455064   0.36434006  0.003036167 0.0041855453           19 
   10100   0.69488841   -6.8391931   0.36247132 0.0029906873 0.0041517787           16 
   10200   0.69658747   -6.8036734   0.36712942 0.0029994232 0.0041168341           18 
   10300   0.69110655   -6.8675642   0.36757015 0.0029738683 0.0040801547           24 
   10400   0.67086777   -6.8666868   0.36323613 0.0029105458 0.0040408317           34 
   10500   0.73376843   -6.8801463   0.36772829 0.0029184784 0.0039976327           13 
   10600   0.67813495   -6.8600534   0.37403054 0.0029404915 0.0039600184           16 
   10700   0.65602202   -6.8788318   0.37908011 0.0029523372 0.0039263777           20 
   10800   0.66214879   -6.9150105   0.38448495 0.0029667047 0.0038963763           15 
   10900   0.66331255   -6.8593085   0.38823873 0.0029681859 0.0038683176           15 
   11000   0.68124572   -6.8630809   0.39127282 0.0029641879 0.0038421102           31 
   11100   0.67399872   -6.8701686   0.39443844 0.0029612494 0.0038156413           59 
   11200   0.69408083   -6.9161479   0.40149392 0.0029873058 0.0037937476           24 
   11300   0.65466752   -6.8956197   0.40297682 0.0029718053 0.0037724944           20 
   11400   0.66061157   -6.8795094    0.4082918 0.0029845891 0.0037497918           22 
   11500   0.67338561    -6.862807   0.40489739  0.002934039 0.0037281937           30 
   11600   0.65273425   -6.9068014   0.41157663 0.0029567285 0.0037042717           14 
   11700   0.64930461   -6.8707669   0.41893501 0.0029838675  0.003685748           21 
   11800    0.7019914   -6.8854495     0.419782  0.002964562 0.0036666278           50 
   11900   0.67746171   -6.8747993    0.4253093 0.0029783563 0.0036498481           64 
   12000   0.65355362   -6.8910654   0.41528553 0.0028839272 0.0036266209           22 
   12100   0.70041381   -6.9172833    0.4156625 0.0028626893 0.0035998119           43 
   12200   0.64997584   -6.9015422   0.42605476   0.00291021 0.0035758096           31 
   12300   0.67721132   -6.9198704   0.42822406 0.0029012469 0.0035549683           19 
   12400   0.66800421   -6.8888037   0.44104275 0.0029639969 0.0035378837           26 
   12500    0.6591221   -6.9140838   0.44039832 0.0029359887 0.0035235149           60 
   12600   0.64660233   -6.9042936   0.44099393 0.0029166264 0.0035063863           99 
   12700   0.66058606   -6.8825382   0.44886939 0.0029453371 0.0034912697           90 
   12800   0.67777408   -6.9380938   0.46255073 0.0030113979  0.003480068           48 
   12900   0.63108452   -6.8739068   0.46006856  0.002972019 0.0034719095           68 
   13000   0.69706323   -6.8903618   0.46376729 0.0029728671 0.0034616691           87 
   13100    0.6888428   -6.8996941    0.4588465 0.0029188708 0.0034492695           93 
   13200   0.67129737   -6.9243335   0.46013037 0.0029048633 0.0034330495           53 
   13300   0.66424676   -6.9897836   0.46967271 0.0029428113 0.0034198508           72 
   13400   0.64655218   -6.8933647   0.48152258 0.0029945433  0.003411232           82 
   13500   0.66859319   -6.9005856   0.48463208 0.0029915559 0.0034036041           36 
   13600   0.71507576   -6.9005765   0.48423539 0.0029671285 0.0033967513           96 
   13700   0.66439577   -6.8527187   0.49167837 0.0029907442  0.003389081          109 
   13800   0.68063458   -6.9246472   0.50021098 0.0030205976 0.0033855816           61 
   13900    0.6857037   -6.9374222   0.50210079 0.0030101965 0.0033807768           53 
   14000   0.69944137   -6.8914568   0.51097844 0.0030415382 0.0033775201           42 
   14100   0.68255184   -6.8692062    0.5031358 0.0029736157 0.0033733354           78 
   14200   0.67125058   -6.9232433   0.49043367 0.0028781318 0.0033621408           81 
   14300   0.64169818   -6.9306479   0.48485901 0.0028255186  0.003344692           94 
   14400   0.66394433   -6.9410689   0.50113153 0.0029000666 0.0033292293           57 
   14500   0.68717095   -6.9033929   0.50973381 0.0029295045 0.0033193821           88 
   14600   0.67214381   -6.8383557   0.51481559  0.002938445 0.0033111199          117 
   14700   0.67329432   -6.9473074   0.51810701 0.0029371145 0.0033023357          154 
   14800    0.6567821    -6.916813   0.52601076 0.0029617722 0.0032960643          131 
   14900   0.68030129   -6.8897136   0.53011373 0.0029648418 0.0032902584          137 
   15000   0.66443799   -6.9039267   0.53244664 0.0029580368 0.0032840655          120 
   15100   0.63924498   -6.9148639   0.53973883  0.002978691 0.0032787735          145 
   15200   0.66381616   -6.9188313   0.54541017 0.0029901873 0.0032752613          138 
   15300   0.65593822   -6.8765235   0.55145103 0.0030035458 0.0032722623          141 
   15400   0.65164863   -6.9243937   0.54921735 0.0029719553 0.0032685775          129 
   15500   0.66026579   -6.9225372   0.54642764 0.0029377829 0.0032628874          100 
   15600   0.67937809   -6.9308286   0.54030693 0.0028862549 0.0032542591           74 
   15700   0.64225039   -6.9033261   0.54413563 0.0028881932 0.0032440758           78 
   15800   0.69303168   -6.9104543   0.54549186 0.0028770667 0.0032342523          147 
   15900   0.62027551   -6.9143583   0.54708917 0.0028673435 0.0032233178          164 
   16000   0.66930807   -6.9418847   0.54760606 0.0028521148 0.0032125882          155 
   16100   0.62916202   -6.9190984   0.54632384  0.002827763 0.0032021592          102 
   16200   0.67916938    -6.984005   0.54121608 0.0027840332 0.0031881426          130 
   16300   0.67466061   -6.9170676   0.54510793 0.0027868503 0.0031737483          133 
   16400   0.64324986   -6.9713148   0.55578746 0.0028241232 0.0031614584          136 
   16500   0.65226478   -6.9675914   0.56222148 0.0028395023 0.0031511182          127 
   16600   0.68193399    -6.974282   0.56949118 0.0028588914 0.0031424876          124 
   16700   0.71406402   -6.9388938   0.57736538 0.0028810647   0.00313585           80 
   16800   0.68350312    -6.967353   0.57614673 0.0028578706 0.0031287985          133 
   16900   0.65143544   -6.9494627   0.58143478 0.0028670353   0.00312047          158 
   17000   0.69207852   -6.9575433   0.58925781 0.0028885186 0.0031145851          161 
   17100   0.67392896   -6.9489703   0.59003059 0.0028753927 0.0031088043          147 
   17200   0.66649001    -6.946445   0.58551121 0.0028367791 0.0031019423          151 
   17300   0.65670693   -6.9556089   0.58641041 0.0028247129 0.0030934155          170 
   17400   0.68256344   -6.9846227   0.59387424 0.0028442252 0.0030859298          189 
   17500   0.68155034   -6.9582112   0.58667223 0.0027936772 0.0030764014          205 
   17600   0.67060394   -6.9022366   0.59080878   0.00279739 0.0030675821          169 
   17700   0.63548704   -6.9411443   0.58185423 0.0027394266 0.0030563086          208 
   17800   0.67004827   -6.9979507   0.56996467 0.0026683739 0.0030422307          218 
   17900   0.65955373   -6.9885986   0.57792042 0.0026905047 0.0030271596          228 
   18000   0.66734543   -6.9550037   0.58263008 0.0026973614 0.0030140429          206 
   18100   0.67583021   -6.9441654    0.5887627 0.0027106937 0.0030016627          258 
   18200   0.68561026   -6.9838809   0.58398423 0.0026739204 0.0029883978          270 
   18300   0.65341602   -6.9748456   0.59747694  0.002720751 0.0029767597          263 
   18400   0.66326716   -6.9960434   0.59510173 0.0026952071 0.0029652978          242 
   18500   0.66940532   -6.9887757   0.60747031 0.0027363527 0.0029551503          231 
   18600   0.64705268   -6.9951896   0.60145262 0.0026946801 0.0029450775          246 
   18700   0.70940668   -7.0317218   0.60935192 0.0027154719 0.0029353128          265 
   18800   0.68704469   -6.9730333   0.61318596 0.0027180228 0.0029266148          279 
   18900    0.6652767   -7.0081175   0.61566515 0.0027145729 0.0029181944          293 
   19000   0.67013382   -6.9960921   0.62339765 0.0027342002 0.0029099725          297 
   19100   0.67347552   -6.9827384   0.63425542 0.0027672574 0.0029036143          316 
   19200   0.64680826   -6.9708356   0.62327363 0.0027051806 0.0028968601          317 
   19300    0.6117917   -7.0326363   0.62646698 0.0027049524  0.002888215          298 
   19400   0.67223871   -7.0218469   0.63247673 0.0027168244 0.0028800508          293 
   19500   0.67051833   -6.9894918   0.65074174 0.0027809475  0.002874753          292 
   19600   0.68139779   -7.0120586   0.64554529 0.0027446653 0.0028706124          327 
   19700   0.65430111   -7.0228464   0.64182013 0.0027149751 0.0028643635          331 
   19800   0.68207636   -7.0428408   0.64723782 0.0027240648 0.0028579447          316 
   19900    0.7150304   -7.0208904   0.65346593 0.0027364569 0.0028518908          324 
   20000    0.6810911   -6.9715733   0.66207458  0.002758644 0.0028476981          308 
   20100   0.65387809   -6.9695842   0.66740015 0.0027669989 0.0028438186          319 
   20200   0.65744161   -7.0346861   0.65716087 0.0027110596  0.002838577          370 
   20300   0.63809784   -6.9973723   0.66383101 0.0027250862 0.0028327744          319 
   20400   0.66832368   -6.9832246   0.67118047 0.0027417502 0.0028284422          334 
   20500   0.64521529   -6.9959205   0.67732806  0.002753366 0.0028238766          337 
   20600   0.65818529   -7.0160476   0.66755352 0.0027004591 0.0028190049          369 
   20700   0.67431584   -7.0015879   0.66494034 0.0026768934 0.0028125113          352 
   20800   0.66628908   -7.0787237   0.67054858 0.0026864927 0.0028061281          374 
   20900   0.67037698    -7.028412   0.66654258 0.0026576657 0.0027994154          372 
   21000   0.66373481   -6.9684157   0.67803706 0.0026906232 0.0027933375          386 
   21100   0.66942668   -7.0057505   0.68418265 0.0027021431 0.0027880312          348 
   21200   0.64382908   -7.0534665    0.6906323 0.0027147495  0.002783253          356 
   21300   0.66109928   -7.0664228   0.68559963 0.0026823146 0.0027783024          398 
   21400   0.68734155   -6.9829658   0.68574743  0.002670356 0.0027723959          400 
   21500   0.67538105   -7.0098976   0.68844161 0.0026683783 0.0027671031          434 
   21600    0.6371235   -7.0229669   0.68088678 0.0026268779  0.002760512          451 
   21700   0.67633583   -7.0102636    0.6785479 0.0026057906 0.0027528465          409 
   21800   0.65613955   -7.0245084   0.69320186 0.0026498541 0.0027461371          434 
   21900    0.6488703   -6.9983259   0.70122293 0.0026682759 0.0027407132          426 
   22000   0.66553746   -7.0476503   0.70329228 0.0026639858  0.002735994          430 
   22100   0.66731869   -7.1007887   0.70517647 0.0026590364 0.0027307765          466 
   22200   0.68462066   -7.0519916   0.70053963 0.0026296532 0.0027251675          491 
   22300   0.68695485   -7.0484662   0.70251982 0.0026252609 0.0027192444          482 
   22400   0.69763412   -7.1023536    0.6953235 0.0025867689 0.0027126378          487 
   22500   0.66282484   -7.0624236   0.70807725 0.0026225083 0.0027060081          488 
   22600   0.68954325   -7.0520421   0.72704404 0.0026808408 0.0027023388          499 
   22700   0.67479308   -7.0497068    0.7281672 0.0026731541 0.0026989808          512 
   22800    0.6499664   -7.1108787   0.72726539 0.0026581337 0.0026949204          508 
   22900   0.64883121   -7.0574463   0.72215648 0.0026279347 0.0026903846          536 
   23000   0.70383863   -7.0532057   0.72650265 0.0026322559 0.0026856289          542 
   23100   0.69748117   -7.0801228   0.72137272 0.0026023546 0.0026805497          541 
   23200    0.6922082    -7.159529   0.73615084 0.0026442199  0.002675965          540 
   23300    0.6393469   -7.1182807   0.74044125 0.0026482161 0.0026722422          539 
   23400   0.68537888   -7.1003511   0.74561034 0.0026553074 0.0026685759          528 
   23500   0.71230864   -7.0861793   0.75182288 0.0026660385 0.0026660398          534 
   23600   0.67759943   -7.1090705   0.75437585 0.0026637565 0.0026629166          541 
   23700   0.66930508   -7.1507877   0.75711551 0.0026621501 0.0026602214          601 
   23800    0.6490616    -7.073407   0.75544498 0.0026451154 0.0026568611          614 
   23900   0.66404502    -7.142819   0.75130849 0.0026196251 0.0026531485          637 
   24000   0.67158915   -7.1661398   0.76342757 0.0026507901 0.0026495902          634 
   24100    0.6760453   -7.1586622   0.75644383 0.0026156425 0.0026459991          652 
   24200   0.69119203   -7.2111781   0.76845914 0.0026462091 0.0026423789          665 
   24300   0.65174213   -7.1985284   0.78435652 0.0026898371 0.0026404272          658 
   24400   0.63733067   -7.1603642   0.79388143 0.0027113436 0.0026395728          671 
   24500   0.67168365   -7.1332093   0.79222948  0.002694658 0.0026386992          680 
   24600   0.66809108   -7.1385201   0.79048576 0.0026777972 0.0026372251          713 
   24700   0.69351882   -7.2378615   0.81641834 0.0027544478 0.0026373164          748 
   24800   0.64461493   -7.2431793   0.81154475 0.0027269648 0.0026381714          745 
   24900   0.67684226   -7.2583732   0.82444639 0.0027591913 0.0026387852          740 
   25000   0.71013866   -7.2222001   0.83008627 0.0027669542 0.0026403199          740 
   25100   0.67475425   -7.2192648   0.83337379 0.0027668452 0.0026417521          754 
   25200   0.65142724   -7.2619592   0.84186942 0.0027839597 0.0026434846          759 
   25300   0.66893405   -7.2234292      0.85204 0.0028064558 0.0026456902          778 
   25400   0.65153312   -7.2551525   0.85528592 0.0028060561  0.002648448          791 
   25500    0.6407117    -7.278565   0.85326206  0.002788438 0.0026508286          788 
   25600   0.66996933   -7.2416864   0.85448597 0.0027815298 0.0026526492          793 
   25700   0.67352485   -7.2924224   0.86480595 0.0028041697 0.0026544135          819 
   25800   0.68691899   -7.3232854   0.86850925 0.0028052624 0.0026572662          808 
   25900   0.65501991   -7.3159811   0.86982798 0.0027986743 0.0026593834          814 
   26000   0.64645513   -7.3952772   0.86985499 0.0027879967   0.00266141          826 
   26100   0.65860059   -7.3635635   0.87532562 0.0027947816 0.0026635991          826 
   26200   0.65252239   -7.2889924    0.8682584 0.0027616361 0.0026647784          822 
   26300    0.6922435   -7.2928634   0.87648091 0.0027771891 0.0026660151          836 
   26400   0.67388385     -7.34196   0.88903216 0.0028062883 0.0026677273          837 
   26500   0.67814826   -7.3707224   0.88447994 0.0027813834  0.002669965          843 
   26600   0.62559388   -7.3953134   0.87289357 0.0027346289 0.0026701511          827 
   26700   0.64836655   -7.3986497   0.87357393 0.0027265103 0.0026698973          840 
   26800   0.69134501   -7.3579279   0.87937512 0.0027343753 0.0026696469          854 
   26900   0.67464477   -7.3716026   0.88651572 0.0027463312 0.0026698619          857 
   27000   0.66605907   -7.4133604   0.89013621 0.0027473339 0.0026702681          847 
   27100   0.71550079   -7.3767483   0.89153204 0.0027414884 0.0026707505          848 
   27200   0.67438765   -7.3663207   0.90061029 0.0027592226 0.0026712403          849 
   27300   0.67334295   -7.4193422   0.89525035 0.0027327544 0.0026716926          856 
   27400   0.67460618    -7.413954   0.89991179 0.0027369579 0.0026717026          839 
   27500   0.65846433   -7.4158364   0.90869834 0.0027536313  0.002672021          848 
   27600   0.66797623    -7.380709    0.9083385 0.0027425679 0.0026722724          850 
   27700   0.69674134   -7.3796257   0.90124815 0.0027113361 0.0026720205          852 
   27800   0.65636825   -7.4008326   0.90191883 0.0027035936 0.0026708655          857 
   27900   0.68025501   -7.4114226   0.89342299 0.0026685274 0.0026697267          850 
   28000   0.68300487    -7.371137   0.90237483 0.0026856393  0.002668102          842 
   28100    0.6633575   -7.4058027   0.91087856 0.0027013005 0.0026669911          850 
   28200   0.66832715    -7.396658   0.90350211 0.0026699235 0.0026655985          845 
   28300   0.67177832   -7.3731916   0.90719754 0.0026713708 0.0026640082          843 
   28400   0.64627602   -7.4152111   0.91075072 0.0026723906 0.0026624978          849 
   28500   0.64745862   -7.3854476   0.91183748 0.0026661914 0.0026606389          854 
   28600   0.68892269   -7.4061696   0.90296649 0.0026310212 0.0026586314          853 
   28700   0.69131614    -7.442749   0.89900248  0.002610344 0.0026554679          855 
   28800   0.68610232   -7.4431432   0.91540861 0.0026487517 0.0026528762          857 
   28900   0.66381051   -7.3965255    0.9078941 0.0026179184 0.0026506191          842 
   29000   0.65183485   -7.3773797   0.91084348 0.0026173663 0.0026479038          842 
   29100   0.65906651   -7.3935981   0.90877426 0.0026024463 0.0026447536          847 
   29200    0.6783255   -7.4255661   0.91693408  0.002616821 0.0026421677          850 
   29300   0.68669977   -7.4127208   0.91602568 0.0026053062 0.0026393248          847 
   29400   0.67790151   -7.4267124   0.91250195 0.0025864567 0.0026360299          857 
   29500   0.64506609   -7.4152619    0.9060956  0.002559592  0.002632227          853 
   29600   0.68283772   -7.4086148   0.89755953  0.002526913 0.0026277497          854 
   29700   0.68025215   -7.3910912   0.90383875 0.0025360234 0.0026229668          853 
   29800   0.66819229   -7.4178226   0.90190976  0.002522119 0.0026184999          856 
   29900   0.66738248    -7.443502   0.90724044 0.0025285408 0.0026136535          856 
   30000    0.6532711   -7.3180174   0.91007424 0.0025279839  0.002609288          840 
   30100   0.66927273     -7.40801   0.91228855 0.0025257158 0.0026047918          848 
   30200   0.66883689   -7.4339428   0.91161786 0.0025155018 0.0026003085          847 
   30300   0.68110507   -7.4144468   0.90728997 0.0024952969 0.0025953628          848 
   30400   0.65940542   -7.3583832   0.90427303 0.0024788186 0.0025903364          844 
   30500   0.67013702   -7.4659981   0.89814484 0.0024539476 0.0025846927          851 
   30600   0.69028559   -7.4646383   0.90063791 0.0024527176 0.0025789273          846 
   30700   0.69161777   -7.3885406    0.9029046 0.0024508811 0.0025732309          848 
   30800     0.697149   -7.4162559   0.90781802 0.0024562175 0.0025677738          852 
   30900   0.67462817   -7.4043299   0.91203977 0.0024596541 0.0025624346          852 
   31000   0.69283103   -7.4198243   0.91384871 0.0024565825 0.0025572265          846 
   31100    0.6811963    -7.422578   0.91166151 0.0024428229 0.0025518891          849 
   31200   0.68599583   -7.4307198   0.91328463 0.0024393286 0.0025465204          847 
   31300   0.67931088   -7.4129419   0.90508057 0.0024096926 0.0025406992          851 
   31400   0.67442686   -7.4074568   0.91258978 0.0024219474  0.002534991          857 
   31500   0.68481389   -7.4699997   0.90873724 0.0024040667 0.0025291585          859 
   31600   0.68239792   -7.4036003   0.92612721 0.0024423186 0.0025239337          859 
   31700   0.66561031   -7.4367122   0.90988987 0.0023919292  0.002518302          849 
   31800   0.68716181   -7.4325024   0.90527689 0.0023723189 0.0025122166          837 
   31900   0.68990859   -7.4342805   0.90772916 0.0023712882 0.0025058384          847 
   32000   0.69585977    -7.447877    0.9121075 0.0023752799 0.0024997124          849 
   32100    0.6542934   -7.3930514   0.90818406 0.0023576948 0.0024934701          839 
   32200   0.64607744    -7.435968   0.89197189 0.0023084158 0.0024866991          840 
   32300   0.68009043   -7.4177403   0.90846639 0.0023438245 0.0024796023          846 
   32400   0.69114712   -7.4147513   0.91442182 0.0023519079 0.0024735751          850 
   32500   0.68719667   -7.4067978   0.91553728 0.0023475315 0.0024674576          851 
   32600   0.68333566   -7.4020888   0.90627476 0.0023166532 0.0024611559          852 
   32700   0.67669756   -7.3875156   0.89439276 0.0022792884 0.0024540122          847 
   32800   0.66889931   -7.4481495   0.89490113 0.0022736309 0.0024464351          852 
   32900   0.69978681   -7.3916772     0.916826 0.0023222543 0.0024397801          843 
   33000   0.70266289   -7.3821947   0.90945843 0.0022966122 0.0024335246          851 
   33100    0.6853877   -7.4431301   0.90807058 0.0022861797 0.0024268827          850 
   33200   0.64319363   -7.4218603   0.91169799 0.0022883985 0.0024200846          844 
   33300   0.68400878   -7.3922628   0.90622813 0.0022678381 0.0024131761          853 
   33400   0.67125331   -7.4190211   0.90621433 0.0022610138 0.0024064225          848 
   33500   0.64369258   -7.4389782   0.90601509 0.0022537689 0.0023994156          846 
   33600   0.67446846    -7.370826   0.91363671  0.002265964 0.0023926028          846 
   33700   0.68410656   -7.4499953   0.92625979 0.0022904544 0.0023864333          851 
   33800   0.62988779   -7.4538385    0.9132518  0.002251607  0.002380159          848 
   33900   0.68532069   -7.4275791   0.90227403 0.0022179794 0.0023730641          848 
   34000   0.70996298    -7.421392   0.90079586  0.002207833 0.0023656543          849 
   34100   0.65161977    -7.439787   0.89654018 0.0021909584 0.0023582014          853 
   34200   0.67596432   -7.4487509   0.90872525 0.0022142428 0.0023508337          843 
   34300   0.69680169   -7.4224377   0.91502855 0.0022231014 0.0023440771          844 
   34400    0.6742492   -7.3952131   0.90961837 0.0022035328 0.0023372414          856 
   34500   0.65390548   -7.4596306   0.89742139 0.0021676845 0.0023299273          851 
   34600   0.65268634   -7.4125289   0.90127194 0.0021706935 0.0023224739          852 
   34700   0.68661279   -7.4192426   0.90141694 0.0021647861 0.0023150634          848 
   34800   0.64558341   -7.3805663   0.90586334 0.0021692129 0.0023077945          843 
   34900   0.67150155   -7.4854774   0.90335182 0.0021570005 0.0023004068          847 
   35000   0.66501832    -7.433561   0.90929017 0.0021649766 0.0022933424          847 
   35100   0.63890406   -7.3700436   0.90526381 0.0021492493 0.0022861312          836 
   35200   0.69404773   -7.3937896   0.91001018 0.0021543801 0.0022789525          839 
   35300   0.69981059   -7.3453703   0.91255894  0.002154294 0.0022721046          840 
   35400   0.66505292   -7.3787001   0.91287046 0.0021489417 0.0022653098          845 
   35500   0.63420692   -7.4208861   0.91273879 0.0021425793 0.0022581685          849 
   35600   0.68086385   -7.4262132   0.90657338 0.0021221287 0.0022511778          851 
   35700    0.6803101   -7.3925958    0.9004434 0.0021018753 0.0022438308          857 
   35800   0.66362924    -7.374095   0.91277153 0.0021247009 0.0022366353          853 
   35900   0.66434535   -7.4502183   0.90417313 0.0020988234 0.0022295298          861 
   36000   0.68824613   -7.4397295   0.91166628 0.0021103386 0.0022224128          860 
   36100   0.64733872   -7.3738458   0.90403314 0.0020868724  0.002215171          857 
   36200   0.66558381   -7.3853359   0.90835921 0.0020910663 0.0022079603          852 
   36300   0.66640428   -7.4089208   0.90764822 0.0020836736 0.0022007163          863 
   36400   0.63445955   -7.4015057   0.91702169 0.0020994086 0.0021938749          853 
   36500   0.69190413   -7.4580089   0.91054919 0.0020788794 0.0021868996          855 
   36600   0.67961423   -7.3801718   0.91370183 0.0020803775 0.0021799805          860 
   36700   0.70627885   -7.4035306   0.91131433 0.0020692877 0.0021731215          857 
   36800   0.65338918   -7.4215259   0.91118829 0.0020633793 0.0021663861          856 
   36900   0.64001035   -7.4219687   0.90606114 0.0020462085 0.0021592147          862 
   37000   0.68655435   -7.4301301   0.90121064 0.0020297537 0.0021519513          857 
   37100   0.65863093   -7.4039014   0.89820904 0.0020175405 0.0021443605          854 
   37200   0.67365446   -7.4627141   0.90883588 0.0020359226 0.0021372294          857 
   37300   0.69549544   -7.4268232   0.91358712 0.0020410793  0.002130318          850 
   37400   0.70267594   -7.4469347   0.91583975 0.0020406411 0.0021236449          853 
   37500    0.6784408   -7.4163626   0.92247683 0.0020499485 0.0021171952          859 
   37600   0.69931217   -7.4250525    0.9100302 0.0020169109   0.00211058          862 
   37700   0.67277399   -7.3743791   0.91071021 0.0020130641 0.0021036405          860 
   37800   0.65641443   -7.4303829   0.90785645 0.0020014472 0.0020966696          856 
   37900   0.65623694   -7.4460052   0.90369658 0.0019870197  0.002089542          859 
   38000   0.65230286   -7.4111077   0.90898891 0.0019933967 0.0020825942          851 
   38100   0.70156687   -7.3626384    0.9166237 0.0020048637 0.0020758691          858 
   38200   0.67932131   -7.4319303   0.91373074 0.0019933044 0.0020693039          858 
   38300   0.66868972   -7.4057069   0.91398318 0.0019886492 0.0020626543          860 
   38400   0.64748488   -7.4803326   0.90419478 0.0019622282 0.0020557027          855 
   38500   0.65836747   -7.4400771   0.90349597  0.001955619 0.0020486503          855 
   38600   0.68015027   -7.3949671   0.91280341 0.0019706464  0.002041758          851 
   38700   0.71154452   -7.4389609   0.92306462 0.0019876499  0.002035415          848 
   38800   0.64418649   -7.4284181   0.92432398 0.0019852319 0.0020292962          852 
   38900   0.65929552   -7.4307054   0.91577121 0.0019618063  0.002022899          850 
   39000   0.65837929   -7.3562505   0.91143016 0.0019475003 0.0020162627          835 
   39100   0.70418578   -7.4048234   0.91247531  0.001944747 0.0020095173          848 
   39200   0.68850748   -7.4242893   0.90411603 0.0019220153 0.0020026496          849 
   39300   0.66025713   -7.4350264   0.91566933 0.0019416228 0.0019960086          846 
   39400   0.67928001    -7.413676   0.92612334 0.0019588057 0.0019898039          841 
   39500   0.68124951   -7.4006129   0.91939489 0.0019396516  0.001983656          844 
   39600   0.68764643   -7.4600053   0.91624046 0.0019281154 0.0019773326          853 
   39700   0.67277893   -7.3991828   0.91144742 0.0019131978 0.0019707684          846 
   39800   0.70902853   -7.3982934   0.91266892 0.0019109483 0.0019642756          845 
   39900   0.65221153   -7.3835116   0.91152903 0.0019037782 0.0019577386          840 
   40000   0.66192165   -7.4251782   0.91735101 0.0019111479 0.0019513101          851 
   40100   0.63940112   -7.4461765   0.91204805 0.0018953617 0.0019449139          839 
   40200   0.67173532   -7.4088262   0.92026378 0.0019076778 0.0019385888          847 
   40300   0.68923572   -7.4254828    0.9244046 0.0019115066 0.0019325268          847 
   40400   0.65213743   -7.4330709   0.92296955 0.0019038151  0.001926591          846 
   40500   0.64579371   -7.3719221   0.91857698 0.0018900761  0.001920481          850 
   40600   0.66222417   -7.4043794   0.90837371  0.001864478 0.0019141037          851 
   40700   0.65874425   -7.4313605   0.90140919 0.0018456371 0.0019073848          847 
   40800   0.64778813   -7.3717313   0.90798929 0.0018545533 0.0019006415          850 
   40900   0.67439384   -7.3495737   0.91762644 0.0018696545 0.0018942703          856 
   41000   0.65195642   -7.4105975   0.92843194 0.0018870568 0.0018883597          845 
   41100   0.66133447   -7.4434848   0.92538027 0.0018762779 0.0018824878          853 
   41200   0.67860753   -7.3803793   0.91922484 0.0018592735 0.0018765861          848 
   41300   0.68004425   -7.4294155   0.91412895 0.0018444894 0.0018703876          845 
   41400   0.65887602   -7.4165457   0.91134517 0.0018344307 0.0018642787          842 
   41500    0.6737665   -7.3726236   0.91406237 0.0018354666 0.0018579474          844 
   41600    0.6675214   -7.4075795   0.91115163 0.0018252236 0.0018517575          839 
   41700   0.65102398   -7.4534189   0.91793108 0.0018343946 0.0018456883          850 
   41800   0.66993248   -7.4210103   0.91339139 0.0018209557 0.0018395227          845 
   41900   0.68619671   -7.4277554   0.92775372 0.0018451744 0.0018337296          849 
   42000   0.65089873    -7.438657   0.92331114 0.0018319665 0.0018280757          853 
   42100   0.65661423    -7.417743   0.90666726 0.0017946699 0.0018219933          851 
   42200   0.68109031   -7.4284149   0.90422939  0.001785603 0.0018155815          850 
   42300   0.65978038   -7.4009387   0.90655464 0.0017859626 0.0018093016          850 
   42400   0.65726689   -7.4524307   0.91141839 0.0017913097 0.0018030052          857 
   42500   0.66341458   -7.4368372   0.92074676 0.0018053858 0.0017971176          854 
   42600   0.66293835   -7.3766285   0.92259117 0.0018047558  0.001791428          842 
   42700   0.67176878   -7.4096358   0.91895574 0.0017934343 0.0017857108          858 
   42800   0.70087362   -7.4462119   0.91862835 0.0017886066 0.0017800413          855 
   42900   0.64480312   -7.3941764   0.91137079 0.0017703395 0.0017741597          854 
   43000   0.67220617   -7.4129852   0.90719322 0.0017581264   0.00176818          852 
   43100   0.69077211   -7.4138266   0.90338201 0.0017466783 0.0017619951          858 
   43200   0.67276347    -7.393205   0.89609044 0.0017285695  0.001755697          858 
   43300   0.66445938   -7.4464883   0.90572522 0.0017431201 0.0017493867          855 
   43400   0.67067692   -7.3972913   0.92155833 0.0017695052 0.0017436975          854 
   43500   0.66292087   -7.4006622    0.9247412 0.0017715349 0.0017382409          855 
   43600   0.64873543   -7.4359323   0.90977605 0.0017388686 0.0017325681          860 
   43700   0.66081916   -7.4379346   0.89749533 0.0017114709 0.0017264591          862 
   43800   0.65913196   -7.3391599   0.90050183 0.0017132835 0.0017203559          860 
   43900   0.66893365   -7.4276374   0.89756397  0.001703804 0.0017142559          859 
   44000    0.6440937   -7.4380547    0.9173064 0.0017373227 0.0017084834          858 
   44100   0.68798408   -7.3753988   0.91312815 0.0017254878 0.0017029244          852 
   44200   0.69323867   -7.3843286   0.90253765  0.001701617 0.0016971564          851 
   44300   0.65713091   -7.4654003   0.91680422 0.0017246129 0.0016914845          850 
   44400   0.67519923   -7.4241889   0.90080465 0.0016906994 0.0016856567          847 
   44500   0.71711654   -7.3981153    0.9147577 0.0017130294 0.0016800065          845 
   44600   0.67482958   -7.4347545   0.90573658 0.0016923329 0.0016743498          838 
   44700   0.63580648   -7.4413168   0.90377286  0.001684886 0.0016685501          844 
   44800   0.65211844   -7.4478936   0.90790686 0.0016888148 0.0016627656          845 
   44900   0.68303868   -7.4190143   0.91494576 0.0016981176 0.0016573367          845 
   45000   0.67627936   -7.3985171   0.90754484 0.0016806386  0.001651792          848 
   45100   0.68702834   -7.4090358   0.91381306 0.0016884942 0.0016462628          847 
   45200   0.68026337   -7.4375636   0.91603759 0.0016888599 0.0016409272          852 
   45300   0.68637373   -7.4382547   0.90931476 0.0016727644 0.0016354906          852 
   45400   0.67384305   -7.4396877   0.91240078 0.0016747444   0.00163007          842 
   45500   0.68167674   -7.3756917   0.91150229 0.0016694181 0.0016245674          845 
   45600   0.65809436   -7.3942032   0.90973604 0.0016625293 0.0016192234          849 
   45700   0.66124589   -7.4529289   0.90504803 0.0016503429  0.001613728          846 
   45800   0.67329324   -7.4326756   0.90204858  0.001641282 0.0016082315          850 
   45900   0.70155885   -7.4169891   0.91061326 0.0016532557 0.0016027416          858 
   46000   0.66622008   -7.3937593    0.9105053 0.0016494661 0.0015974319          858 
   46100   0.69292539    -7.403019   0.92094161 0.0016647534 0.0015923337          862 
   46200   0.63552885   -7.3870212   0.92184465 0.0016627789 0.0015873167          860 
   46300   0.65782942   -7.3874383    0.9108613 0.0016394192 0.0015822294          860 
   46400   0.66639068   -7.4189226   0.89769681 0.0016122428 0.0015768582          858 
   46500   0.66187475   -7.3960475   0.90312702 0.0016185072  0.001571344          854 
   46600   0.64016478   -7.4042862   0.91076232  0.001628688 0.0015660474          854 
   46700    0.6473931    -7.403097    0.9121512 0.0016276788 0.0015609064          856 
   46800   0.65019687   -7.3900932   0.91567081  0.001630468 0.0015559022          860 
   46900   0.67869817    -7.439525   0.90921356  0.001615518 0.0015508221          858 
   47000   0.69387716   -7.3893098   0.91685045 0.0016256214  0.001545852          854 
   47100   0.66187706    -7.381325   0.90736715 0.0016053913 0.0015407905          855 
   47200   0.68315248   -7.4485251   0.89685266 0.0015834263 0.0015354443          854 
   47300   0.67261087   -7.4357301   0.90167409 0.0015885731 0.0015300844          854 
   47400   0.69771862   -7.4242952   0.91350658 0.0016060242 0.0015249825          861 
   47500   0.68327362   -7.4464472   0.91301795 0.0016017859 0.0015201145          854 
   47600    0.6724792    -7.435606   0.90231444 0.0015796821 0.0015150169          855 
   47700    0.6710166   -7.4070178   0.89639369 0.0015660267 0.0015097866          848 
   47800   0.70900938    -7.445708   0.90631386 0.0015800451 0.0015045738          856 
   47900   0.69789343   -7.4661515   0.91049706 0.0015840241 0.0014996137          855 
   48000   0.67541338   -7.4145974   0.91442816 0.0015875489 0.0014948322          853 
   48100   0.69995632   -7.4434253   0.90240937 0.0015634258 0.0014899805          847 
   48200   0.68552043   -7.4414353   0.90261865  0.001560544 0.0014848499          857 
   48300   0.67218923   -7.3924198    0.9001747 0.0015530964 0.0014798048          855 
   48400   0.68420079   -7.3880031   0.90968365 0.0015662597 0.0014748994          845 
   48500   0.69923823   -7.4330439   0.90856504 0.0015611083 0.0014700943          848 
   48600   0.67552659   -7.4465852   0.90241666 0.0015473537 0.0014652618          854 
   48700   0.67649469   -7.4136513     0.903766 0.0015464853 0.0014603528          849 
   48800   0.67899391   -7.4033183   0.90686434 0.0015486071 0.0014555114          858 
   48900   0.65226536   -7.4183493   0.90478947 0.0015419043 0.0014506674          852 
   49000   0.64536508   -7.3965049   0.92060622 0.0015656568 0.0014460686          850 
   49100   0.71677645   -7.4255822   0.90138931 0.0015298528 0.0014414177          851 
   49200   0.66393189   -7.3976514   0.89825298 0.0015214312 0.0014364582          847 
   49300   0.68378456   -7.4338301   0.89682175 0.0015159259 0.0014314848          841 
   49400   0.66961047   -7.4361507    0.9113929 0.0015374374 0.0014268105          853 
   49500    0.6898089   -7.4339868   0.90753066 0.0015278294 0.0014222085          849 
   49600   0.68217984   -7.4243243   0.92471897 0.0015536273 0.0014178022          849 
   49700    0.6694397   -7.3658356   0.91057911 0.0015267926 0.0014134835          843 
   49800   0.68676011   -7.4256359   0.90427162  0.001513172 0.0014088453          850 
   49900   0.66558091   -7.3778484   0.90118957 0.0015049926 0.0014041738          855 
   50000   0.69121657     -7.39943    0.9012289 0.0015020482   0.00139946          847 
   50100   0.66087086   -7.4273669   0.90176909 0.0014999486 0.0013948043          854 
   50200   0.67469711   -7.4320277   0.90285382 0.0014987613  0.001390125          860 
   50300    0.6939608   -7.3547473   0.90734975 0.0015032302 0.0013856128          851 
   50400   0.70813535    -7.423315   0.92121784 0.0015231776 0.0013813362          853 
   50500    0.6588203   -7.4333057   0.91245906  0.001505708 0.0013770817          851 
   50600   0.65800336   -7.3651332   0.90786581 0.0014951677 0.0013727105          850 
   50700   0.67297699    -7.389615   0.90556171 0.0014884315 0.0013682566          851 
   50800   0.66322674   -7.4569033    0.9017947  0.001479322 0.0013637985          850 
   50900   0.70523197   -7.4300389   0.89455022  0.001464555 0.0013592323          860 
   51000   0.67631537    -7.403076   0.90397103 0.0014770768 0.0013546899          860 
   51100   0.68631677   -7.4354007    0.9180354 0.0014971223 0.0013505437          855 
   51200   0.69871659   -7.4471029   0.91119768 0.0014830691 0.0013462776          853 
   51300   0.69183301   -7.4203557   0.92167778 0.0014972024 0.0013421431          858 
   51400    0.6532053   -7.4680503   0.91986221  0.001491346 0.0013381134          848 
   51500   0.65639782    -7.432121   0.91444453 0.0014796837 0.0013340382          854 
   51600   0.69517433   -7.3683784   0.90580643 0.0014628657 0.0013298413          852 
   51700   0.68089003   -7.3913473   0.90364432 0.0014565511 0.0013255868          845 
   51800   0.66474883   -7.4475715   0.90812034   0.00146094 0.0013213304          844 
   51900   0.67890233   -7.4166755   0.90742083  0.001457002 0.0013170787          856 
   52000   0.66166005   -7.4530002   0.91143738 0.0014606368 0.0013130311          855 
   52100    0.6897912   -7.4319166    0.9098545 0.0014553015 0.0013089291          852 
   52200   0.71820973    -7.454906   0.91671854 0.0014634715 0.0013049293          849 
   52300    0.6595456   -7.4140183   0.91718917 0.0014614231 0.0013010603          850 
   52400   0.68147378   -7.3940164   0.90654943 0.0014417135 0.0012969708          849 
   52500   0.70212516   -7.3773683   0.90558833 0.0014374418 0.0012928442          849 
   52600   0.63527356   -7.4039418   0.91341689 0.0014471117 0.0012887671          852 
   52700   0.65272888   -7.3942268   0.91037898 0.0014395619  0.001284778          841 
   52800   0.67632589   -7.4118986    0.9177061 0.0014483998 0.0012808898          842 
   52900    0.6972663   -7.4430682   0.90845966 0.0014310959 0.0012769554          845 
   53000   0.68707351   -7.4084997   0.90885712 0.0014290206 0.0012729708          844 
   53100   0.67199213   -7.4393005   0.90582013 0.0014215633 0.0012689294          840 
   53200   0.63906212   -7.4424146   0.90767635 0.0014217988 0.0012649772          850 
   53300   0.66775043   -7.3985233   0.89998785 0.0014071105 0.0012609076          851 
   53400   0.69060926   -7.4319687   0.91887416 0.0014339484 0.0012570149          856 
   53500   0.64847917   -7.4345571   0.91136146 0.0014195661 0.0012531881          852 
   53600   0.68462282   -7.4133105    0.9083162 0.0014121831 0.0012493189          850 
   53700   0.71736353   -7.4017574    0.9127166 0.0014163821  0.001245433          847 
   53800   0.66772318   -7.3981186    0.9156666 0.0014183188 0.0012417826          847 
   53900     0.654692   -7.3975327   0.91671161  0.001417303 0.0012380684          850 
   54000   0.66614476   -7.3625636   0.90437441 0.0013956395 0.0012342801          851 
   54100   0.66804141   -7.4001804   0.90694819 0.0013970243 0.0012304139          851 
   54200   0.66629038    -7.435264   0.91043637 0.0013998099 0.0012266244          852 
   54300   0.70668584   -7.3945856   0.90686685 0.0013917539 0.0012227838          852 
   54400   0.65502589   -7.3687912   0.91623093   0.00140354 0.0012191298          857 
   54500   0.65506254   -7.4541582   0.91904336 0.0014052651 0.0012155654          848 
   54600   0.64314497   -7.4240692   0.90187339 0.0013764856 0.0012118949          850 
   54700   0.65449535    -7.415777   0.90686022 0.0013815664 0.0012081129          850 
   54800   0.65043131   -7.3675458    0.9106247 0.0013847699 0.0012043754          851 
   54900   0.66851852   -7.3980269   0.90165004 0.0013686248 0.0012006188          850 
   55000   0.64187085   -7.3980149   0.89950786 0.0013628907 0.0011967829          853 
   55100   0.67646485   -7.4343365   0.91096888 0.0013777509 0.0011930227          855 
   55200   0.68425851   -7.4033108   0.91442713 0.0013804757 0.0011894919          842 
   55300   0.70808139   -7.3781543   0.90407661 0.0013623819 0.0011858635          855 
   55400   0.67029974   -7.4343709   0.90684713 0.0013640901  0.001182241          857 
   55500   0.64740409   -7.4338187   0.91343442 0.0013715231 0.0011786531          856 
   55600   0.64846518   -7.3718476   0.89854204 0.0013467357 0.0011750819          851 
   55700   0.70523961   -7.4084081   0.90101907 0.0013480237 0.0011713486          856 
   55800   0.66655467   -7.4143505   0.90469215 0.0013510934  0.001167709          851 
   55900   0.62465564   -7.3911675   0.91070825  0.001357645 0.0011641607          847 
   56000   0.64404065   -7.4689533   0.91861305 0.0013669837 0.0011607629          849 
   56100   0.66237586   -7.3722743   0.92617424 0.0013757787 0.0011574906          843 
   56200   0.70592697   -7.4240661   0.92067019 0.0013651693 0.0011543001          846 
   56300   0.68027812   -7.4437755    0.9144462  0.001353532 0.0011509325          852 
   56400   0.64621084   -7.4017433   0.91309327 0.0013491331 0.0011475787          851 
   56500   0.69994448   -7.3902787   0.90090592 0.0013287698 0.0011440741          850 
   56600   0.65291244   -7.3930506   0.90944162 0.0013389894 0.0011405532          840 
   56700   0.66628915   -7.4054252   0.92787756 0.0013637236 0.0011373808          855 
   56800   0.69610338   -7.3881461   0.92257145 0.0013535379   0.00113423          855 
   56900   0.67390345   -7.4037469   0.90993988 0.0013326595 0.0011309505          852 
   57000   0.66401546   -7.4244287   0.91455122 0.0013370632 0.0011276204          851 
   57100    0.6689364   -7.4094521   0.91087167 0.0013293515 0.0011243238          853 
   57200   0.67528798   -7.3993094   0.90500212 0.0013184763 0.0011209242          853 
   57300   0.64377703   -7.3847392   0.91946231 0.0013372052 0.0011176622          853 
   57400   0.67040896   -7.4174689   0.92364075 0.0013409418 0.0011145568          854 
   57500   0.66402153    -7.408577   0.92865689 0.0013458795 0.0011115551          857 
   57600   0.62843339    -7.415985   0.90801378 0.0013136773 0.0011083856          847 
   57700   0.64436643   -7.3842539    0.9070749 0.0013100446 0.0011050189          854 
   57800   0.66470931   -7.3746096   0.90970291  0.001311567 0.0011017992          849 
   57900   0.64373971   -7.4164114   0.91144817 0.0013118137 0.0010985593          858 
   58000   0.65640364   -7.3880558    0.9194354 0.0013210279 0.0010954905          852 
   58100   0.66439467   -7.3836935   0.91231707 0.0013085443 0.0010923621          854 
   58200    0.6356512   -7.4322706    0.9141946 0.0013089842 0.0010892071          851 
   58300   0.64640552   -7.3873973    0.9148598 0.0013076898 0.0010861251          853 
   58400   0.67593413   -7.3846525   0.90846797 0.0012963299 0.0010829224          845 
   58500   0.68591309   -7.4216684   0.91228677 0.0012995538  0.001079878          850 
   58600    0.6762806   -7.4201869   0.90323336 0.0012844615 0.0010766623          845 
   58700   0.66872629   -7.4409505   0.91249153 0.0012954167  0.001073434          853 
   58800   0.66175519   -7.3982163   0.90909124 0.0012883946 0.0010703515          849 
   58900    0.6870026   -7.4032282   0.91929818 0.0013006482 0.0010673322          850 
   59000   0.66330226   -7.3975841    0.9217418 0.0013018952 0.0010643466          848 
   59100   0.66982686   -7.4500771   0.90966198 0.0012826593  0.001061378          845 
   59200   0.68941349   -7.4726301   0.91676343  0.001290489 0.0010583518          847 
   59300   0.71125208   -7.4120922   0.90845059 0.0012766309  0.001055442          848 
   59400   0.68153558   -7.3990519   0.90782715 0.0012736071 0.0010523286          844 
   59500   0.64871286   -7.4358244   0.91328226 0.0012791068 0.0010493071          844 
   59600   0.68393873   -7.3557883   0.91774118 0.0012831951 0.0010463739          849 
   59700   0.71179276   -7.3965232   0.91610011  0.001278755 0.0010434922          851 
   59800   0.68757589   -7.4190696   0.91355033 0.0012730634  0.001040579          858 
   59900   0.65579359   -7.4469857   0.91743501 0.0012763425 0.0010376973          848 
   60000   0.65523277   -7.4578702   0.91993712 0.0012776904  0.001034869          844 
   60100   0.64963905   -7.3914496   0.91127647 0.0012635558 0.0010319788          848 
   60200   0.64354309   -7.3994029   0.92325881 0.0012780438 0.0010291212          842 
   60300   0.67129782   -7.4037741   0.91515357  0.001264723 0.0010263532          845 
   60400   0.67409059   -7.3569154   0.91228722 0.0012586744 0.0010234775          838 
   60500   0.68726315   -7.4355372   0.91196962 0.0012561565 0.0010205906          847 
   60600   0.66588426   -7.4755862   0.90272612 0.0012413725 0.0010176637          858 
   60700   0.66621682   -7.4188655   0.91143069 0.0012512777 0.0010146789          852 
   60800   0.68905322   -7.4214504   0.92080138 0.0012620633 0.0010119684          856 
   60900   0.71004696   -7.4332947   0.91131721 0.0012470131 0.0010091912          860 
   61000   0.66511996   -7.3741078   0.90535736  0.001236827 0.0010062649          852 
   61100   0.64867907   -7.4295284   0.91400975 0.0012466036 0.0010034064          856 
   61200   0.66484301   -7.4421832   0.91905535  0.001251437  0.001000663          852 
   61300    0.6613932   -7.4283676   0.91482862 0.0012436496 0.00099794307          851 
   61400   0.67379654   -7.3817081   0.91265428  0.001238673 0.0009951537          846 
   61500   0.68550006   -7.4020027   0.91263489 0.0012366326 0.00099236829          847 
   61600   0.69767659   -7.4345499   0.90967013 0.0012306143 0.00098964427          850 
   61700   0.68603769   -7.4444208   0.91749952 0.0012391944 0.00098691074          855 
   61800   0.63787566    -7.385909   0.91709506 0.0012366438 0.00098424764          855 
   61900   0.68460317   -7.3874273   0.91979151 0.0012382761 0.00098159521          847 
   62000   0.67187378   -7.3916726    0.9098884 0.0012229683 0.00097892619          851 
   62100   0.66635693   -7.4248872   0.89852918 0.0012057557 0.00097610635          857 
   62200   0.68927066   -7.4065405    0.9166503 0.0012280952 0.00097332699          859 
   62300   0.67383262   -7.3865281    0.9156251 0.0012247527 0.00097068582          856 
   62400   0.64008499   -7.4176736   0.92713932 0.0012381668 0.00096817581          855 
   62500   0.65823594   -7.4223762     0.923903 0.0012318707 0.00096566872          856 
   62600   0.69684494   -7.4446079   0.91375882 0.0012163988 0.00096310066          853 
   62700   0.64872479   -7.4194523   0.91581172 0.0012171873 0.0009604781          857 
   62800    0.6645955   -7.4375758   0.93132842 0.0012358392 0.00095800178          852 
   62900   0.68883113   -7.4205284   0.91196806 0.0012082248 0.0009555301          850 
   63000   0.65962204   -7.4030805   0.89927309 0.0011895147 0.00095276176          855 
   63100   0.66106852   -7.4444736   0.90588513 0.0011963618 0.00094999535          855 
   63200   0.68484038   -7.4043352   0.91513777  0.001206669 0.00094739759          852 
   63300   0.69613109   -7.4280135    0.9109217 0.0011992123 0.00094480434          851 
   63400   0.67273783   -7.4391212    0.9230802  0.001213302 0.00094232037          849 
   63500   0.69528956   -7.4113993   0.92954416 0.0012198742 0.00093995403          848 
   63600   0.68031502   -7.3523324   0.90861828 0.0011905376 0.00093749772          854 
   63700   0.67345544    -7.447011   0.90937012 0.0011896522 0.00093486229          857 
   63800   0.67847204   -7.4071152   0.90535623 0.0011825447 0.00093228249          850 
   63900   0.65680184   -7.3646201   0.90884159 0.0011852394 0.00092967018          846 
   64000   0.68555782   -7.3929781   0.91872452 0.0011962559 0.00092716476          843 
   64100   0.65766441   -7.4394755   0.91707405 0.0011922439 0.00092471088          855 
   64200   0.67862145   -7.4031133   0.91079276 0.0011822336 0.00092222507          855 
   64300   0.68302476   -7.3830466   0.90690084  0.001175351 0.00091970238          849 
   64400   0.69284225   -7.4344859   0.90956981 0.0011769796 0.00091720315          852 
   64500   0.68036178   -7.4221071   0.90973686 0.0011753706 0.00091467461          859 
   64600   0.63994918   -7.4153958   0.92051793 0.0011874586 0.00091226316          856 
   64700   0.68327021   -7.4662328   0.91183184 0.0011744356 0.00090986712          860 
   64800    0.7181317   -7.4249088   0.90934213 0.0011694215 0.0009074168          848 
   64900   0.67644913   -7.4163829   0.91459586 0.0011743655 0.0009049793          859 
   65000   0.64206243   -7.4581236   0.90915964 0.0011655893 0.00090250634          848 
   65100   0.67359549   -7.4351326   0.90982943 0.0011646562 0.00090005822          853 
   65200   0.68211095   -7.4179142   0.91112634 0.0011645275 0.00089760122          861 
   65300   0.68887072   -7.4002037   0.92176109 0.0011763158 0.0008952391          856 
   65400   0.71982589   -7.4028232   0.92749136 0.0011818187 0.00089304302          849 
   65500   0.68158795   -7.4208776   0.91080672 0.0011587872 0.00089075403          853 
   65600   0.68912344   -7.4738594    0.9098662  0.001155826 0.00088837547          860 
   65700   0.65327244   -7.3548466   0.91526334 0.0011609124 0.00088603078          850 
   65800   0.66196484   -7.4018541   0.91777813  0.001162333 0.00088370467          860 
   65900   0.63832713   -7.4357783   0.91305148 0.0011545922 0.00088138119          859 
   66000   0.65210359   -7.3836716   0.92105576 0.0011629492 0.00087905268          851 
   66100   0.69241277   -7.3799209   0.92215166 0.0011625714 0.00087685189          855 
   66200   0.67125559   -7.4618618   0.90663104 0.0011412777 0.00087454603          861 
   66300   0.65954803   -7.3994882   0.90854782 0.0011419656 0.00087215764          860 
   66400   0.68341795   -7.4087859   0.91387765 0.0011469348 0.00086987923          856 
   66500   0.65694293   -7.4315006   0.92443942 0.0011584454 0.00086762735          855 
   66600   0.66162412   -7.4224991   0.91570581  0.001145778 0.00086548401          853 
   66700   0.67618368   -7.4232385   0.90968406 0.0011365368 0.00086318007          859 
   66800   0.68998859   -7.4010007   0.91419877 0.0011404675 0.0008609365          844 
   66900    0.6731097   -7.4515288   0.91334509 0.0011376994 0.00085870074          855 
   67000   0.64947552   -7.4613076   0.91653601 0.0011399702 0.00085649455          851 
   67100   0.66304609   -7.4298804   0.90755295 0.0011271149 0.00085422255          847 
   67200   0.66435003   -7.3599044   0.90853295  0.001126653 0.00085193908          848 
   67300   0.64358313   -7.4019193   0.91648759 0.0011348286 0.00084972169          849 
   67400   0.66580111   -7.4206335   0.91858821 0.0011357421 0.00084759372          853 
   67500    0.6693314   -7.4260227   0.92123861 0.0011373316 0.00084546674          849 
   67600   0.66347306   -7.4501421   0.91476415 0.0011276678 0.00084334214          851 
   67700   0.65084912   -7.4075413   0.90953325 0.0011195633 0.00084112213          844 
   67800   0.70693568   -7.4364685   0.91834118 0.0011287379 0.00083895698          850 
   67900   0.69099746   -7.4627197   0.92425246 0.0011343305 0.00083692624          844 
   68000   0.65775463   -7.3909228   0.91176391 0.0011173577 0.00083479948          843 
   68100   0.66609104   -7.4498216    0.9165569 0.0011215821 0.00083266707          846 
   68200   0.67484279   -7.4049436   0.92040418 0.0011246385 0.00083060583          847 
   68300   0.68291265   -7.3942406   0.92016182 0.0011226962 0.00082854806          848 
   68400   0.66407886   -7.4272378   0.92088539 0.0011219364 0.00082647212          851 
   68500   0.68987992   -7.4188861   0.91746523 0.0011161377 0.00082444614          853 
   68600   0.67196293   -7.3824267   0.91998488 0.0011175715 0.00082236865          856 
   68700   0.67084689   -7.4494759   0.91485873 0.0011097267 0.00082034134          856 
   68800   0.65331619   -7.4219147   0.91544856 0.0011088282 0.00081824659          852 
   68900   0.67546391   -7.4023547   0.91016508 0.0011008286 0.00081615714          854 
   69000    0.6365188   -7.3760704   0.90071025 0.0010878143 0.00081393575          859 
   69100   0.63269288   -7.4406734    0.9183169 0.0011074733 0.00081182574          861 
   69200   0.67480445   -7.4098729   0.91985085 0.0011077202 0.00080983503          861 
   69300   0.64519083   -7.3853221   0.91447333 0.0010996553 0.00080780225          848 
   69400   0.69436907   -7.3945339   0.92477389 0.0011104393 0.00080578565          841 
   69500   0.67407609   -7.3936861   0.91826897 0.0011010419 0.00080385069          855 
   69600   0.66766435   -7.3977869    0.9066242 0.0010855175 0.00080180975          860 
   69700   0.63799898   -7.4456416   0.90293394  0.001079548 0.00079964018          856 
   69800   0.65745791   -7.3915632   0.90812023 0.0010841932 0.00079751242          857 
   69900   0.65592578    -7.392716   0.91694527 0.0010931632 0.00079546991          853 
   70000   0.64605909   -7.4493918   0.92493106 0.0011011084 0.00079353672          847 
   70100   0.66314412   -7.4877004   0.92419016 0.0010986569 0.00079164605          856 
   70200   0.66556932   -7.3992212   0.92466115 0.0010976509 0.00078980566          851 
   70300   0.66466627   -7.4123438   0.92419774 0.0010955402 0.00078792997          854 
   70400   0.61553453   -7.4174157   0.92285858 0.0010923989 0.00078604701          846 
   70500   0.67469069   -7.3970716   0.90573491 0.0010706086 0.00078405659          842 
   70600   0.65742807   -7.3963572   0.91905037 0.0010848092 0.0007820922          854 
   70700   0.69527678   -7.4141467   0.91974099 0.0010840889 0.00078021846          853 
   70800   0.66591553   -7.4604054   0.91767597 0.0010801271 0.0007783194          852 
   70900   0.65522066   -7.4257209   0.91010022 0.0010696994 0.0007763709          849 
   71000   0.66369787   -7.4151548   0.91696972 0.0010762555 0.00077442844          850 
   71100   0.69738351   -7.4221105   0.91006345 0.0010666473 0.00077250146          847 
   71200   0.65569527   -7.3636428   0.91774565 0.0010741405 0.00077055029          846 
   71300   0.67979638   -7.3971157   0.93460406 0.0010923376 0.0007687836          842 
   71400   0.69673343   -7.4199483   0.93631324 0.0010928026 0.00076708587          841 
   71500   0.68835472   -7.4606088   0.91418814 0.0010654873 0.0007653206          844 
   71600   0.70416441   -7.4664051   0.91774006 0.0010681332 0.00076342202          855 
   71700   0.69300549   -7.3870035   0.92720709 0.0010776465 0.00076163892          852 
   71800    0.6767815   -7.4135142   0.92239744 0.0010705634 0.00075987762          855 
   71900   0.65394401   -7.4465869   0.91012711 0.0010548529 0.00075801515          852 
   72000   0.65778372   -7.4056638   0.91178421 0.0010553058 0.00075609816          857 
   72100   0.67538383   -7.4266556   0.91478352 0.0010573087 0.00075422162          857 
   72200   0.63396803   -7.3617238   0.92326396 0.0010656324 0.00075241476          859 
   72300   0.66977127   -7.4161911   0.92453872 0.0010656278 0.00075068844          860 
   72400   0.66543818   -7.4297238   0.92263607  0.001061966 0.00074890606          858 
   72500   0.64018783    -7.385838   0.92669403 0.0010651655 0.00074723327          850 
   72600   0.65832452   -7.4338054   0.92178128 0.0010580593 0.00074545856          860 
   72700   0.66655873   -7.4339615    0.9202958 0.0010549012 0.00074369731          862 
   72800   0.67698392   -7.4034963   0.90956062 0.0010411637 0.00074189754          858 
   72900   0.68839985   -7.4160861   0.91185967 0.0010423636 0.0007400309          857 
   73000   0.62331231   -7.3677342   0.92282037 0.0010534479 0.00073828369          852 
   73100   0.67002954   -7.4275137   0.92139146 0.0010503779 0.00073654838          856 
   73200   0.65349909   -7.4094089   0.92898886  0.001057592 0.00073485655          852 
   73300   0.63552452   -7.4113501   0.92318456 0.0010495504 0.00073318957          854 
   73400   0.68751721    -7.455884    0.9142573 0.0010379851 0.0007314177          850 
   73500   0.69186723   -7.4230129   0.91003494 0.0010317856 0.0007296485          854 
   73600   0.68054456    -7.440828   0.92808971 0.0010508262 0.00072792666          854 
   73700   0.68896349   -7.4027956   0.92350734 0.0010442191 0.00072627572          861 
   73800   0.67109663   -7.3850758   0.91773058 0.0010362811 0.00072456926          854 
   73900   0.66413177   -7.4103134   0.92022002 0.0010376861 0.00072282873          855 
   74000   0.68606973   -7.4441017   0.92795861 0.0010449984 0.00072119683          857 
   74100    0.6725063   -7.3818145   0.92878769 0.0010445206 0.00071960937          858 
   74200   0.66230814   -7.3973247   0.93325579 0.0010481309 0.00071803708          856 
   74300   0.65757095   -7.4526039   0.91483134 0.0010260558 0.00071637407          854 
   74400   0.66220925   -7.3750121   0.92320528 0.0010340561 0.00071472025          852 
   74500   0.64028628   -7.3732384   0.93356041  0.001044251 0.00071315386          854 
   74600   0.67344928   -7.4282865   0.92363576 0.0010317647 0.00071159798          851 
   74700    0.6786106   -7.3923466   0.92552818 0.0010324946 0.00070999251          840 
   74800    0.6720738   -7.4445626   0.92466556 0.0010301532 0.00070838091          861 
   74900   0.69501976   -7.4462981   0.92603031 0.0010302963 0.00070680854          859 
   75000   0.66713379   -7.4021243   0.92831367 0.0010314596 0.00070524676          862 
   75100   0.66663446   -7.4388938   0.93172788 0.0010338747 0.00070368775          858 
   75200   0.65240446   -7.4033945   0.92829874 0.0010286998 0.00070218343          860 
   75300   0.69549053   -7.4170531   0.92198908 0.0010203509 0.00070061562          854 
   75400   0.67735058   -7.4245997   0.92102667  0.001017934 0.00069901403          850 
   75500   0.63392374   -7.4389908   0.92812582 0.0010244214 0.00069745932          857 
   75600   0.68901954   -7.4262318   0.91678397 0.0010105643 0.00069586547          847 
   75700   0.70825598   -7.3991304   0.93085918 0.0010247239 0.00069431204          848 
   75800   0.66480253   -7.4192317   0.93632406   0.00102938 0.00069287502          851 
   75900   0.67404928   -7.4247207   0.92646734 0.0010172017 0.00069137559          854 
   76000   0.67826032   -7.3758808   0.92899315 0.0010186328 0.00068985862          851 
   76100   0.67014419   -7.4210188   0.93050717 0.0010189522 0.00068836144          853 
   76200   0.66503569   -7.5023635   0.91691937 0.0010027552 0.00068681349          850 
   76300   0.64571872   -7.3764488   0.92273197 0.0010077894 0.00068524423          847 
   76400   0.68611418   -7.4221678   0.92320622 0.0010069876 0.00068371216          850 
   76500   0.69490948   -7.4602708   0.93224344 0.0010155157 0.00068222162          855 
   76600   0.67291065   -7.4692907   0.92133036 0.0010023176 0.00068070272          844 
   76700   0.68712351    -7.418273   0.91894621 0.00099842047 0.00067916653          842 
   76800   0.66757641   -7.4270732   0.92854586 0.0010075367 0.00067765272          849 
   76900   0.65476327   -7.4677027   0.92670592 0.0010042327 0.00067618326          849 
   77000   0.65573992   -7.3998449   0.93190978 0.0010085604 0.00067475833          848 
   77100   0.67287091   -7.3959508   0.91651572 0.00099061361 0.00067328195          848 
   77200   0.72417651   -7.3834133   0.92148492 0.00099469443 0.0006717558          843 
   77300   0.69896605   -7.4151171   0.93080179 0.0010034517 0.0006702682          849 
   77400   0.66554465   -7.4299346   0.92498577 0.00099589337 0.00066883963          851 
   77500   0.67736892    -7.417379   0.92997043 0.00099996819 0.00066739402          841 
   77600    0.6763068   -7.3927276   0.91975517 0.00098770958 0.00066592266          838 
   77700   0.68133892    -7.436956   0.92328401 0.00099022309 0.00066441905          849 
   77800   0.64550436   -7.4448042   0.91426156 0.00097928616 0.00066292629          848 
[...]
   83300   0.70214661   -7.3900568    0.9428937  0.000943271 0.0005931456          853 
   83400   0.69036488   -7.4162508   0.93768447 0.00093693491 0.00059203623          852 
   83500   0.65629603   -7.3950121   0.92929747 0.00092744258 0.00059084294          856 
   83600   0.63703344   -7.4483163   0.94245578 0.00093944953 0.00058970228          855 
   83700   0.67232307   -7.4498025   0.93978178 0.00093566484 0.00058861224          851 
   83800     0.667133   -7.3763628   0.94207474 0.00093682849 0.00058746899          860 
   83900   0.71101499   -7.4185607   0.94113367 0.00093477718 0.00058640918          852 
   84000   0.64107281   -7.3753256   0.94189483 0.00093441947 0.00058531059          852 
   84100   0.70519109   -7.4048401   0.94647335 0.00093784517 0.0005842408          858 
   84200   0.69244762   -7.3857202   0.94138171 0.00093169211 0.00058314971          847 
   84300   0.69969414   -7.4427631   0.94173932 0.00093094041 0.00058205541          846 
   84400   0.64738481   -7.4279359   0.93505081 0.00092323342 0.00058093544          859 
   84500   0.65808745   -7.4357291   0.93841957 0.00092546309 0.00057980451          857 
   84600   0.65362992    -7.374718   0.94087519 0.00092678801 0.00057868626          860 
   84700   0.63468099   -7.4180738   0.94731447 0.00093202918 0.00057764304          861 
   84800   0.66171627   -7.4054885   0.95158888 0.00093513057 0.0005766205          859 
   84900    0.6909378   -7.4234794   0.95795322 0.00094027603 0.00057566466          857 
   85000   0.67528161   -7.4220099   0.95122774 0.00093257621 0.00057469155          860 
   85100   0.63492798   -7.4161837   0.94090559 0.00092137249 0.00057365689          856 
   85200   0.64061918   -7.3785724   0.94337461 0.00092270599 0.00057259351          849 
   85300   0.67876293   -7.3843947   0.94114651 0.00091944754 0.00057153979          845 
   85400   0.65155885   -7.4050675   0.94767889 0.00092474521 0.00057049571          849 
   85500   0.63284386   -7.3862675   0.94172372 0.00091785937 0.00056944793          847 
   85600   0.66552021   -7.4224236    0.9441323 0.00091913191 0.00056841198          845 
   85700   0.67980102   -7.4352172   0.94639028 0.00092025503 0.00056737328          858 
   85800   0.64871657    -7.432682   0.94253072 0.00091543387 0.0005663568          859 
   85900   0.67604219   -7.4204892   0.94171203 0.00091357395 0.00056534511          857 
   86000   0.69035575   -7.4116861   0.94017848 0.00091102565 0.00056428752          860 
   86100   0.65186661   -7.4129365    0.9503172 0.00091978048 0.00056327537          858 
   86200   0.64606194   -7.4240445   0.93578658 0.00090466606 0.00056224327          855 
   86300   0.65894348   -7.3844837   0.94389326 0.00091144579 0.0005611733          857 
   86400   0.67199553   -7.4374149   0.95215437 0.00091835877 0.00056021103          851 
   86500   0.65061381   -7.3808082   0.96632436 0.00093094832 0.00055931985          850 
   86600   0.69964015   -7.4298393   0.96044865 0.00092421925 0.00055845686          860 
   86700   0.70855771   -7.4026384   0.94951119 0.00091264051 0.00055751553          855 
   86800   0.66212444   -7.4192374   0.95816332 0.00091989565 0.00055657855          850 
   86900   0.66126034    -7.403505   0.94764883 0.00090875415 0.00055563179          850 
   87000   0.69216094   -7.3681297   0.94647883 0.00090658892 0.00055462994          852 
   87100   0.64859162   -7.3874714   0.95917469 0.00091769488 0.00055371849          831 
   87200   0.67690148   -7.4398712   0.95024751 0.00090811115 0.00055280187          848 
   87300   0.66826258   -7.4516159   0.95038037 0.00090719776 0.00055183574          858 
   87400   0.67796344   -7.3660417   0.95809643 0.0009135168 0.00055092148          856 
   87500   0.66182006   -7.3789819   0.95682998 0.00091126665 0.00055003691          832 
   87600   0.71471659    -7.432113   0.96370743 0.00091676886 0.00054916787          853 
   87700   0.68076287   -7.3986551   0.96362347 0.00091564373 0.00054833166          847 
   87800   0.64378276   -7.4355529   0.97092551 0.00092153142 0.00054749594          852 
   87900   0.68039146   -7.4248545   0.95805302 0.00090827931 0.00054665366          844 
   88000   0.69332865   -7.3525828   0.95593627 0.00090524267 0.00054576569          843 
   88100   0.66130488    -7.382833   0.95144995 0.00089997157 0.00054485757          843 
   88200    0.6662353   -7.4262167   0.96014614 0.00090716755 0.00054395364          848 
   88300   0.66737692   -7.4288504   0.96381106 0.00090959896 0.00054308588          852 
   88400   0.65873204   -7.4108023   0.96522597 0.00090990381 0.00054225962          843 
   88500   0.70538709    -7.426779    0.9640076 0.00090772843 0.0005414275          845 
   88600    0.6714463   -7.4115415   0.95929676 0.0009022731 0.00054057525          846 
   88700   0.71188054   -7.4283554   0.96250448 0.00090426952 0.00053973356          853 
   88800   0.69050014   -7.4234741    0.9687074 0.00090907225 0.00053892364          853 
   88900   0.69850181    -7.450744   0.95939857 0.00089932374 0.00053807826          854 
   89000    0.6748542   -7.4257151   0.97066606 0.00090886335 0.00053726965          846 
   89100   0.68801569   -7.3818352   0.97035422 0.00090755164 0.00053647338          860 
   89200   0.67942717   -7.4442549    0.9621124 0.00089883445  0.000535674          860 
   89300   0.66699335   -7.4169135   0.95060182 0.00088708643 0.00053476084          855 
   89400   0.67134503   -7.3934975   0.97372772 0.00090765074 0.00053394332          845 
   89500   0.63884047   -7.4247625   0.97130893 0.00090438448 0.00053317351          852 
   89600   0.64930173   -7.4249288   0.97337171 0.00090529362 0.00053240441          849 
   89700   0.65698404   -7.3365661   0.96835002 0.00089961912 0.00053162358          845 
   89800   0.67305544    -7.385718   0.96319922 0.00089383743 0.00053081265          845 
   89900   0.63457812   -7.4282699    0.9673331 0.00089667509 0.00053000349          849 
   90000   0.65814727   -7.4150469   0.96553636 0.00089401515 0.00052919983          847 
   90100   0.66381489   -7.4032037   0.96985774 0.00089701973 0.0005284247          845 
   90200   0.69086105   -7.3798284   0.97701657 0.0009026391  0.000527658          846 
   90300   0.67353663   -7.4412338   0.97070451 0.00089581442 0.00052690082          837 
   90400   0.68009762   -7.4091789   0.96963413 0.00089383677 0.00052612945          850 
   90500   0.67271175     -7.41279   0.95795159 0.0008820917 0.00052532279          852 
   90600   0.66062879   -7.4211992   0.96491355 0.00088752165 0.0005244942          853 
   90700   0.67752932   -7.4591889   0.97054764 0.00089171962 0.00052370898          850 
   90800    0.6399032   -7.3871337   0.97259305 0.00089261476 0.00052294933          848 
   90900   0.67130203   -7.3449002   0.97696655 0.00089564223 0.00052221022          846 
   91000   0.68637503   -7.4236825   0.97600125 0.00089377403 0.00052148649          857 
   91100    0.6720473   -7.3945287   0.97146871 0.00088864682 0.00052074278          861 
   91200   0.66321696   -7.4672785   0.96765117 0.00088418418 0.00051997712          859 
   91300   0.65014207   -7.4101125   0.96776529 0.0008833199 0.00051920627          859 
   91400   0.66595672   -7.3710101   0.96879216 0.00088328971 0.00051844229          859 
   91500   0.65711593   -7.4392144   0.94788227 0.00086328075 0.00051759079          859 
   91600   0.66369633   -7.4373368   0.95529189 0.00086907923 0.00051669605          856 
   91700   0.70595154   -7.4321548   0.96934879 0.00088090584 0.00051590496          860 
   91800   0.68349622    -7.408877   0.97008297 0.00088061271 0.00051513644          853 
   91900   0.67986546   -7.3708971   0.97364585 0.00088288524 0.0005144166          860 
   92000   0.66200884   -7.4042061   0.96201374 0.00087138925 0.0005136535          860 
   92100   0.64610401   -7.3764504   0.95681259 0.00086573705 0.00051283143          854 
   92200   0.66356316   -7.4736319   0.96826301 0.00087514733 0.00051202929          854 
   92300   0.68214934   -7.4285934   0.96211268 0.00086864633 0.00051125884          852 
   92400   0.68171741   -7.4054811   0.95846777 0.00086441898 0.00051045463          856 
   92500   0.65762051   -7.4267753   0.95672812 0.00086191722 0.00050961655          861 
   92600   0.64477889   -7.4259504   0.96545508 0.00086884006 0.0005088176          860 
   92700   0.67198033   -7.3767102   0.96717918 0.00086945269 0.00050805036          860 
   92800   0.69006468   -7.3702214   0.95385287 0.00085654891 0.00050725786          860 
   92900   0.66693892   -7.4008533   0.95983585 0.00086099376 0.00050643282          853 
   93000   0.68637468   -7.4280432   0.95635575 0.00085694959 0.0005056197          854 
   93100   0.63982559   -7.4286389    0.9515182 0.00085169906 0.00050478021          861 
   93200   0.67199133   -7.4155756   0.97267332 0.00086970075 0.00050399936          861 
   93300   0.64002043   -7.3393701   0.97490029 0.00087075767 0.00050327978          851 
   93400   0.63583821   -7.4277923   0.96789275 0.00086357311 0.00050256083          856 
   93500   0.65385076   -7.4374189     0.959732 0.00085537611 0.00050178199          855 
   93600   0.68338405   -7.4102375   0.95641493 0.00085150901 0.00050096654          852 
   93700   0.70074759   -7.3996632   0.95569636 0.00084996118 0.00050017584          857 
   93800   0.67499427    -7.430318   0.95842784 0.00085148173 0.0004993685          859 
   93900   0.68379705    -7.427734   0.96280367 0.00085445835 0.00049859455          859 
   94000   0.64402261   -7.4108674   0.96738695 0.00085761254 0.00049783074          854 
   94100   0.67790791   -7.4607546   0.96724721 0.0008565774 0.00049711027          859 
   94200   0.68327353   -7.3878843   0.96914511 0.00085734705  0.000496373          852 
   94300     0.651363   -7.3992211   0.97204159 0.00085899751 0.00049565944          851 
   94400   0.66321429   -7.4681223   0.97758486 0.00086298098 0.00049497595          857 
   94500   0.67129843   -7.3914982   0.97789075 0.00086233752 0.00049430891          851 
   94600   0.67968729   -7.4006948   0.95555723 0.00084175231 0.00049353965          851 
   94700   0.67980885   -7.4776476   0.96623718 0.00085026151 0.0004927744          852 
   94800   0.68529208   -7.4093567    0.9650829 0.00084834995 0.00049203403          845 
   94900   0.68855804   -7.3940302   0.96896689 0.0008508666 0.00049131581          850 
   95000   0.64286827   -7.4230309   0.96074607 0.0008427597 0.00049057233          855 
   95100   0.67821758   -7.4202369   0.96939749 0.00084945451 0.00048981794          848 
   95200   0.69032282   -7.3897881   0.98009853 0.00085792938 0.00048914368          845 
   95300   0.65967976   -7.4324489   0.97626935 0.00085368078 0.00048848417          856 
   95400   0.63982129   -7.4042005    0.9756791 0.00085227035 0.00048782616          858 
   95500   0.65992381   -7.3958469   0.96255303 0.00083992411 0.00048710772          856 
   95600   0.67411644   -7.3667086   0.96091388 0.00083761669 0.0004863528          859 
   95700   0.70767279   -7.4423952    0.9641037 0.00083951907 0.00048560372          858 
   95800   0.67961723   -7.4183498   0.96750249 0.00084159924 0.00048488056          853 
   95900   0.66352231   -7.4003655   0.96934439 0.0008423222 0.00048417643          854 
   96000   0.69324127    -7.398265     0.962101 0.00083515712 0.00048344231          859 
   96100   0.67401857   -7.4498896   0.97110432 0.00084209532 0.00048272772          852 
   96200   0.67400982   -7.4393508   0.97623609 0.00084566535 0.0004820428          861 
   96300   0.70068625   -7.3896335   0.96828704 0.00083790847 0.00048138862          850 
   96400   0.67756876   -7.4318607    0.9652434 0.00083440819 0.00048064288          860 
   96500   0.65895287   -7.4166106   0.96985312 0.00083752428 0.00047994045          860 
   96600   0.69673959   -7.4028475   0.96863889 0.00083560981 0.00047923579          856 
   96700   0.69170661    -7.370604   0.97619233 0.00084125502 0.0004785855          850 
   96800   0.67830823   -7.4444664   0.97971163 0.00084341566 0.00047794966          859 
   96900    0.6421083   -7.4037283   0.96561069 0.00083041855 0.00047725075          856 
   97000   0.67190763   -7.3668294   0.96486348 0.00082892051 0.00047653655          860 
   97100   0.64725707   -7.4065098   0.96970674 0.00083222343 0.00047582319          857 
   97200   0.65115647   -7.4290725   0.98118623 0.00084120904 0.00047516842          856 
   97300   0.68634827    -7.414873   0.98535176 0.00084391209 0.00047455917          861 
   97400   0.69943504   -7.4095292   0.97141075 0.00083111802 0.00047393363          856 
   97500   0.66892981   -7.4209238    0.9700237 0.00082908008 0.00047325702          855 
   97600   0.69359689   -7.4339466   0.96987678 0.00082810517 0.00047256035          859 
   97700   0.71165756   -7.3024295   0.97195849 0.00082903317 0.00047189305          853 
   97800   0.69362876   -7.3908478    0.9697805 0.00082632967 0.00047122532          858 
   97900   0.68950533   -7.4421298     0.967705 0.00082371893 0.00047052351          855 
   98000   0.67710363   -7.4370797   0.97792502 0.00083156889 0.00046985733          852 
   98100   0.70393355   -7.4083895   0.97905319 0.00083167957 0.00046924578          856 
   98200   0.68643684   -7.4311687   0.97539767 0.00082773054 0.00046860764          856 
   98300   0.66246082   -7.4538047   0.96617984 0.00081907413 0.00046794031          858 
   98400   0.65880594   -7.4178725     0.976144 0.00082668022 0.00046727169          854 
   98500   0.66653253    -7.393231   0.98279074 0.00083146424 0.00046666378          857 
   98600   0.67401203   -7.4050572   0.98661432 0.00083385253 0.00046608286          849 
   98700    0.6944637   -7.4577717   0.97974476 0.00082720766 0.00046550028          855 
   98800   0.67512204   -7.4611594   0.97802223 0.00082491753 0.0004648644          856 
   98900   0.69295827   -7.4054122   0.97995018 0.00082570794 0.00046425992          854 
   99000   0.66581141   -7.3913021   0.99020811 0.0008335085 0.00046367234          854 
   99100   0.65626665   -7.4664953   0.97508319 0.00081994886 0.00046308299          859 
   99200   0.66016031   -7.4102413   0.98289731 0.00082568658 0.0004624577          860 
   99300   0.69589472   -7.4026756   0.98307959 0.00082500804 0.00046185741          853 
   99400   0.71854934   -7.4129338   0.98950378 0.00082956387 0.00046129863          856 
   99500   0.64892064   -7.4334263   0.98892583 0.00082824608 0.00046073163          858 
   99600   0.68778326    -7.462119   0.98741887 0.00082615367 0.00046017666          857 
   99700   0.67595512    -7.406107   0.98914149 0.00082676487 0.00045959814          858 
   99800   0.71352075     -7.35123   0.99170024 0.00082807301 0.0004590783          854 
   99900   0.68374341   -7.4271922   0.97844046 0.00081618323 0.00045848201          857 
  100000   0.66557303   -7.4138327   0.98348142 0.00081956785 0.00045790215          854 
  100100   0.68145109   -7.4047956   0.97728241 0.00081358841 0.00045728621          856 
  100200   0.66903812   -7.4215921    0.9874139 0.00082120251 0.00045668664          850 
  100300    0.6673797   -7.4438342    1.0028125 0.00083317752 0.00045616759          851 
  100400   0.65377377   -7.3492724    0.9827897 0.0008157285 0.00045564054          846 
  100500    0.6558176    -7.437341   0.98236448 0.00081456424 0.00045501884          849 
  100600   0.67133132   -7.4046159   0.99031135 0.00082033743 0.00045444994          851 
  100700    0.6656879    -7.410911   0.98646934 0.00081634338 0.00045390415          848 
  100800   0.64259521   -7.4329593   0.98837853 0.00081711188 0.00045332752          855 
  100900   0.68786332   -7.4503107   0.99951569 0.00082550023 0.00045281827          855 
  101000   0.66703022   -7.4358933   0.98607768 0.00081359544 0.00045227521          848 
  101100    0.6371159   -7.4162794   0.97274936 0.00080180462 0.00045166313          850 
  101200   0.68426061   -7.4502228   0.96963658 0.00079844909 0.00045103043          847 
  101300   0.67075068   -7.3905904   0.97987512 0.00080608351 0.00045038407          853 
  101400   0.65770233   -7.3976694   0.99041973 0.00081395441 0.00044983155          853 
  101500   0.68509752   -7.4727381   0.98817399 0.00081130869 0.00044928289          845 
  101600   0.68587999   -7.3890704   0.99279095 0.00081429704 0.00044873201          849 
  101700   0.69628442   -7.4357497     0.990283 0.00081144133 0.00044820995          846 
  101800   0.65636403   -7.4496404    0.9844892 0.00080590143 0.00044764831          849 
  101900   0.65338956   -7.3891532   0.98613362 0.00080645536 0.0004470686          840 
  102000   0.70201771   -7.4635873    0.9745818 0.00079622696 0.00044645926          849 
  102100   0.66548843   -7.4179857   0.97912081 0.00079915181 0.00044584631          847 
  102200   0.67149853   -7.3968706   0.98242026 0.00080106022 0.00044526055          848 
  102300   0.68579498   -7.3989801   0.97633087 0.00079531677 0.00044466071          844 
  102400   0.66329699   -7.4091816   0.98926556 0.00080506637 0.00044409185          854 
  102500    0.6545779   -7.4203852    0.9861221 0.00080172528 0.00044353967          849 
  102600   0.65203888   -7.3960902   0.99627648 0.00080919142 0.00044300685          851 
  102700   0.64810116   -7.3577239    1.0034762 0.00081424553 0.00044252993          834 
  102800   0.64770034   -7.4380644   0.99169072 0.00080389974 0.00044202656          852 
  102900   0.69009675   -7.4304257   0.98395337 0.00079685242 0.00044148212          847 
  103000   0.66756546   -7.4167036   0.97675508 0.00079025492 0.00044088538          850 
  103100   0.63933691   -7.4598299   0.98389658 0.00079526073 0.00044029043          850 
  103200   0.64951406   -7.4192028   0.98583829 0.00079605804 0.00043973676          852 
  103300   0.67261674   -7.4161465   0.98817752 0.00079717451 0.00043919972          849 
  103400   0.64230867   -7.4606462   0.98096992 0.00079059471 0.00043862969          851 
  103500   0.66910339   -7.4320448   0.99775716 0.00080334715 0.00043810113          844 
  103600   0.66674566   -7.4095217   0.99583976 0.00080102941 0.00043760697          846 
  103700   0.66521711   -7.3934677    0.9940175 0.00079879259 0.00043709829          855 
  103800   0.67695654   -7.4425094   0.99261998 0.00079690107 0.00043657573          844 
  103900   0.64857134   -7.4390121   0.98338046 0.00078872349 0.00043603251          849 
  104000   0.69877411   -7.4191828   0.98453162 0.00078888751 0.00043547541          853 
Loop time of 196.534 on 12 procs for 100000 steps with 864 atoms

Performance: 87923.588 tau/day, 508.817 timesteps/s
99.4% CPU use with 12 MPI tasks x no OpenMP threads

MPI task timing breakdown:
Section |  min time  |  avg time  |  max time  |%varavg| %total
---------------------------------------------------------------
Pair    | 10.156     | 11.173     | 12.148     |  19.5 |  5.68
Neigh   | 1.0042     | 1.057      | 1.1422     |   3.7 |  0.54
Comm    | 7.5001     | 8.6741     | 9.9938     |  26.5 |  4.41
Output  | 2.5605     | 2.5614     | 2.5689     |   0.1 |  1.30
Modify  | 170.37     | 171.01     | 171.37     |   2.5 | 87.01
Other   |            | 2.056      |            |       |  1.05

Nlocal:        72.0000 ave          75 max          67 min
Histogram: 1 0 0 0 0 4 2 2 2 1
Nghost:        1644.00 ave        1662 max        1627 min
Histogram: 1 0 2 1 3 1 2 1 0 1
Neighs:        8910.33 ave        9911 max        8293 min
Histogram: 1 1 2 4 1 1 1 0 0 1
FullNghs:      17820.7 ave       18564 max       16550 min
Histogram: 1 0 0 1 1 2 3 0 1 3

Total # of neighbors = 213848
Ave neighs/atom = 247.50926
Neighbor list builds = 4536
Dangerous builds = 0

#clear
#
#next RN
#
#jump SELF



Total wall time: 0:03:17
