
units lj                  # Use reduced LJ style units
atom_style atomic         # Uncharged point particles
atom_modify map hash      # Needed for indexing of clusters etc
                          # Used to be able to find where atoms are in relation to each other.

# Define a lattice with which to populate the simulation cell. With units
# set to 'lj' the second argument to the lattice command is the reduced
# density rho* and the spacings are multiples of that required to acheive
# that density. Also define a simulation cell called 'box' in lattice units
# and fill it with atoms. Here we're creating a box which is ten lattice
# constants in each direction.
lattice fcc 1.0 spacing 1 1 1                 # All equal sizes - gives the right reduced density.
Lattice spacing in x,y,z = 1.5874011 1.5874011 1.5874011

region box block 0 6 0 6 0 6 units lattice # Defines a region, "box", in lattice units
create_box 1 box                              # Creates a simulation box as specified above,
Created orthogonal box = (0.0000000 0.0000000 0.0000000) to (9.5244063 9.5244063 9.5244063)
  2 by 2 by 3 MPI processor grid
                                              # with one type of atom
create_atoms 1 box                            # Creates particles on lattice points
Created 864 atoms
  using lattice units in orthogonal box = (0.0000000 0.0000000 0.0000000) to (9.5244063 9.5244063 9.5244063)
  create_atoms CPU = 0.001 seconds


# Set the mass of the first (and only) atom type.
mass 1 1.0

# Lennard-Jones interactions between particles, 3.5 sigma cut-off. Apply
# long range tail corrections to energy and pressure and set all coefficients
# to unity since we work in reduced units here. Note that this doesn't shift
# the potential such that it goes to zero at the cutoff. That would require
# pair_modify('shift', 'yes').
pair_style lj/cut  3.5      # non-GPU version
pair_modify tail  yes
pair_coeff 1  1  1.0  1.0   # Intearaction between 1 and 1 set with epsilon = 1 and sigma = 1

write_data data.*
System init for write_data ...
Neighbor list info ...
  update every 1 steps, delay 10 steps, check yes
  max neighbors/atom: 2000, page size: 100000
  master list distance cutoff = 3.8
  ghost atom cutoff = 3.8
  binsize = 1.9, bins = 6 6 6
  1 neighbor lists, perpetual/occasional/extra = 1 0 0
  (1) pair lj/cut, perpetual
      attributes: half, newton on
      pair build: half/bin/atomonly/newton
      stencil: half/bin/3d
      bin: standard

#############################
#   M E L T   S Y S T E M   #
#############################

velocity all create 2.4 2750902 mom yes dist gaussian # Assign velocities
                                                    # Temperature 2.4, random number seed, zero linear momentum
						                                                        # Gaussian distribution

timestep 0.002   # simulation timestep
thermo 100       # output thermodynamic data every 100 steps

# Define a fix  in this case with index 1 applied to all
# particles in the simulation. This fix is for simulations
# in the anisotropic NPT ensemble. Note that we use the MTK
# correction.
fix 1 all npt temp 2.4 2.4 0.1 iso 5.68 5.68 0.5 mtk yes tchain 5 pchain 5 # Use NPT ensemble
                                                                         # Set temperature and pressure and damping
                                                                         # Numbers of thermostats in chain and in barostat
run 1000         # run for 10000 steps
Per MPI rank memory allocation (min/avg/max) = 3.633 | 3.633 | 3.634 Mbytes
Step Temp E_pair E_mol TotEng Press Volume 
       0          2.4   -8.3859253            0    -4.790092     -2.24275          864 
     100    1.3007594   -6.4407842            0   -4.4919034    5.3582762    891.69205 
     200    1.5828213   -6.0796178            0   -3.7081338    6.4338598    907.46239 
     300    1.7629056     -5.73851            0   -3.0972122    5.5953229    954.02439 
     400    1.8733232   -5.2785237            0   -2.4717912    6.0585808    994.36537 
     500      2.02574   -4.9360708            0   -1.9009777    5.7478153    1042.8978 
     600    2.2112838   -4.6895875            0   -1.3765009    5.7138268    1079.0368 
     700    2.3146746   -4.4629638            0  -0.99497044    5.6088298    1118.0222 
     800    2.4734008     -4.39503            0   -0.6892229    5.7937797    1123.7282 
     900    2.4206618   -4.2767239            0  -0.64993368    5.5531987    1146.9555 
    1000    2.3618098   -4.2459295            0  -0.70731524    5.7000582    1143.3852 
Loop time of 0.217852 on 12 procs for 1000 steps with 864 atoms

Performance: 793199.375 tau/day, 4590.274 timesteps/s
99.8% CPU use with 12 MPI tasks x no OpenMP threads

MPI task timing breakdown:
Section |  min time  |  avg time  |  max time  |%varavg| %total
---------------------------------------------------------------
Pair    | 0.066119   | 0.085823   | 0.12153    |   5.5 | 39.40
Neigh   | 0.01159    | 0.014078   | 0.018045   |   1.7 |  6.46
Comm    | 0.059112   | 0.098759   | 0.12063    |   5.8 | 45.33
Output  | 0.00020104 | 0.00021037 | 0.00025994 |   0.0 |  0.10
Modify  | 0.016669   | 0.017205   | 0.01794    |   0.3 |  7.90
Other   |            | 0.001777   |            |       |  0.82

Nlocal:        72.0000 ave          80 max          66 min
Histogram: 2 1 2 2 1 0 2 0 0 2
Nghost:        1314.75 ave        1327 max        1295 min
Histogram: 1 0 0 2 3 0 0 1 2 3
Neighs:        6211.67 ave        7136 max        5326 min
Histogram: 2 0 0 2 1 4 1 0 0 2

Total # of neighbors = 74540
Ave neighs/atom = 86.273148
Neighbor list builds = 80
Dangerous builds = 2

# Equilibrate just above the melting temperature to avoid step fn in T

fix 1 all npt temp 1.25 1.25 0.1 iso 5.68 5.68 0.5 mtk yes tchain 5 pchain 5
run 1000
Per MPI rank memory allocation (min/avg/max) = 3.634 | 3.634 | 3.634 Mbytes
Step Temp E_pair E_mol TotEng Press Volume 
    1000    2.3618098   -4.2459295            0  -0.70731524    5.7000582    1143.3852 
    1100    1.8617945   -4.5967525            0    -1.807293    5.9593679    1083.5566 
    1200      1.66126   -5.0091582            0   -2.5201524    5.9308167    1028.0056 
    1300    1.4533368   -5.3154554            0   -3.1379734    5.5185254    997.93023 
    1400    1.3100587   -5.5224566            0    -3.559643    5.2858775     978.0358 
    1500    1.3306301   -5.7450087            0   -3.7513736    5.2687861    956.68836 
    1600    1.2302857    -5.777427            0   -3.9341343     5.385203    950.58576 
    1700    1.2545134   -5.8251615            0   -3.9455694    5.6370291    940.07281 
    1800    1.2669685   -5.8434457            0   -3.9451925    6.1076728    931.13358 
    1900    1.2975362   -5.8185374            0   -3.8744858    5.5765884    942.23221 
    2000    1.2225624   -5.8503078            0   -4.0185867    5.1330896    948.19804 
Loop time of 0.178924 on 12 procs for 1000 steps with 864 atoms

Performance: 965774.339 tau/day, 5588.972 timesteps/s
99.9% CPU use with 12 MPI tasks x no OpenMP threads

MPI task timing breakdown:
Section |  min time  |  avg time  |  max time  |%varavg| %total
---------------------------------------------------------------
Pair    | 0.069436   | 0.077865   | 0.092112   |   2.4 | 43.52
Neigh   | 0.0096388  | 0.010687   | 0.012298   |   0.8 |  5.97
Comm    | 0.056695   | 0.072342   | 0.081417   |   2.7 | 40.43
Output  | 0.00020515 | 0.00021101 | 0.00024671 |   0.0 |  0.12
Modify  | 0.015521   | 0.015827   | 0.016229   |   0.2 |  8.85
Other   |            | 0.00199    |            |       |  1.11

Nlocal:        72.0000 ave          79 max          65 min
Histogram: 1 1 0 4 0 1 1 3 0 1
Nghost:        1466.08 ave        1476 max        1447 min
Histogram: 1 1 0 0 2 0 0 4 1 3
Neighs:        7466.67 ave        8131 max        6694 min
Histogram: 1 0 2 0 3 1 3 0 0 2

Total # of neighbors = 89600
Ave neighs/atom = 103.70370
Neighbor list builds = 67
Dangerous builds = 0


# Small amount of linear quench

fix 1 all npt temp 1.25 ${temp} 0.1 iso 5.68 5.68 0.5 mtk yes tchain 5 pchain 5
fix 1 all npt temp 1.25 0.55 0.1 iso 5.68 5.68 0.5 mtk yes tchain 5 pchain 5
run 2000
Per MPI rank memory allocation (min/avg/max) = 3.634 | 3.634 | 3.634 Mbytes
Step Temp E_pair E_mol TotEng Press Volume 
    2000    1.2225624   -5.8503078            0   -4.0185867    5.1330896    948.19804 
    2100    1.2337322   -5.8716465            0   -4.0231902    5.3863289    940.78298 
    2200    1.2036595   -5.9236945            0   -4.1202949    5.7137647     929.1658 
    2300    1.1744362   -5.9394232            0   -4.1798078    6.3237417    917.11882 
    2400    1.1505218   -6.0020502            0    -4.278265    5.8488725    919.58416 
    2500    1.0658306   -6.0294006            0   -4.4325051    5.9661978    912.95433 
    2600    1.0537438   -6.1142139            0   -4.5354277    5.7310336    909.70165 
    2700     1.061534   -6.2132889            0   -4.6228308    5.4425179    906.95917 
    2800   0.97090907   -6.2021844            0   -4.7475064    5.7626985     901.4528 
    2900   0.95208305   -6.2713516            0   -4.8448799    5.7290802     895.0434 
    3000   0.90014318   -6.2934387            0   -4.9447867    5.6857384     894.1272 
    3100   0.89400891   -6.3827954            0   -5.0433341    5.3742386    892.37398 
    3200   0.84140299   -6.4324826            0   -5.1718389    5.2698665    888.90938 
    3300    0.8334494   -6.5126393            0   -5.2639122    5.5528292    878.25855 
    3400   0.80911354   -6.5542738            0   -5.3420082    5.9682916    868.46767 
    3500   0.80945391   -6.6718899            0   -5.4591143    6.0003406    859.18074 
    3600   0.71373184   -6.6654376            0    -5.596079    6.0860239    857.09037 
    3700   0.69943301   -6.7731567            0   -5.7252214    5.7227966    854.07313 
    3800   0.67766516   -6.8502352            0   -5.8349139    5.6387863    849.44615 
    3900   0.60184255   -6.8547764            0   -5.9530574    5.6930455     847.6007 
    4000   0.58997404   -6.9506141            0   -6.0666773     5.524401    842.46747 
Loop time of 0.372909 on 12 procs for 2000 steps with 864 atoms

Performance: 926768.716 tau/day, 5363.245 timesteps/s
99.9% CPU use with 12 MPI tasks x no OpenMP threads

MPI task timing breakdown:
Section |  min time  |  avg time  |  max time  |%varavg| %total
---------------------------------------------------------------
Pair    | 0.1501     | 0.17241    | 0.19684    |   3.4 | 46.23
Neigh   | 0.015859   | 0.01789    | 0.019954   |   0.9 |  4.80
Comm    | 0.12045    | 0.14599    | 0.16949    |   3.9 | 39.15
Output  | 0.00041593 | 0.0004271  | 0.00049828 |   0.0 |  0.11
Modify  | 0.030784   | 0.031457   | 0.032305   |   0.3 |  8.44
Other   |            | 0.004734   |            |       |  1.27

Nlocal:        72.0000 ave          78 max          66 min
Histogram: 1 1 0 1 2 2 4 0 0 1
Nghost:        1608.50 ave        1632 max        1579 min
Histogram: 1 0 1 1 1 1 4 2 0 1
Neighs:        8504.67 ave        9255 max        7226 min
Histogram: 1 0 0 2 1 0 2 3 0 3

Total # of neighbors = 102056
Ave neighs/atom = 118.12037
Neighbor list builds = 105
Dangerous builds = 0

#############################
# F R E E Z E  S Y S T E M  #
#############################

# Define solid atoms. This closely follows ten Wolde  Ruiz-Montero and Frenkel  Faraday Discuss  1996  104  93-110
# Compute components of the per-atom q6 vector
compute q6 all orientorder/atom degrees 1 6 components 6 nnn NULL cutoff 1.3 # compute the Q6 parameter.
                                                                             # Use all neighbours within 1.3 unit cell.

# get number of connections
compute coord_number all coord/atom orientorder q6 0.5

# An atom is solid if it has 8 or more connections (of a possible 14)
variable is_solid atom c_coord_number>=8
group solid dynamic all var is_solid    # Must be dynamic to update
dynamic group solid defined

# do clustering
compute cluster solid cluster/atom 1.3 # Create a cluster where all atoms within are solid and max 1.3 units from another member

# define chunks one chunk per cluster
compute clus_chunks solid chunk/atom c_cluster nchunk every compress yes  # Says which atoms are in which chunk

# count the size of each chunk
compute size_chunks solid property/chunk clus_chunks count


# Find the maximum entry in the vector of chunk sizes
variable max_n equal max(c_size_chunks)


# Thermo style which includes this variable
# thermo_style custom step temp pe vol v_max_n

thermo ${N}  # Print the thermo information every 100 steps
thermo 100  

# Reset the npt fix at a lower temperature (below freezing)

compute myRDF all rdf 100
fix 2 all ave/time 1 50 100 c_myRDF[*] file pcf.rdf mode vector


compute msd all msd com yes
variable twopoint equal c_msd[4]/6/(step*dt+1.0e-6)
fix 9 all vector 10 c_msd[4]
variable fit equal slope(f_9)/6/(10*dt)
thermo_style custom step temp pe c_msd[4] v_twopoint v_fit v_max_n


fix 1  all npt temp  ${temp} ${temp}  0.1  iso  5.68  5.68  0.5  mtk yes tchain  5  pchain  5
fix 1  all npt temp  0.55 ${temp}  0.1  iso  5.68  5.68  0.5  mtk yes tchain  5  pchain  5
fix 1  all npt temp  0.55 0.55  0.1  iso  5.68  5.68  0.5  mtk yes tchain  5  pchain  5

dump dmp2 all dcd ${N} traj.dcd
dump dmp2 all dcd 100 traj.dcd
dump dmp3 all dcd ${N} traj_unwrap.dcd
dump dmp3 all dcd 100 traj_unwrap.dcd
dump_modify dmp3 unwrap yes


# fix rnuntil all halt ${N} v_max_n >= 3980 error soft message no   # Stop when solidified

run 100000 # 5000000  # Run for this many steps
Neighbor list info ...
  update every 1 steps, delay 10 steps, check yes
  max neighbors/atom: 2000, page size: 100000
  master list distance cutoff = 3.8
  ghost atom cutoff = 3.8
  binsize = 1.9, bins = 5 5 5
  5 neighbor lists, perpetual/occasional/extra = 1 4 0
  (1) pair lj/cut, perpetual
      attributes: half, newton on
      pair build: half/bin/atomonly/newton
      stencil: half/bin/3d
      bin: standard
  (2) compute orientorder/atom, occasional
      attributes: full, newton on
      pair build: full/bin/atomonly
      stencil: full/bin/3d
      bin: standard
  (3) compute coord/atom, occasional
      attributes: full, newton on
      pair build: full/bin/atomonly
      stencil: full/bin/3d
      bin: standard
  (4) compute cluster/atom, occasional
      attributes: full, newton on
      pair build: full/bin/atomonly
      stencil: full/bin/3d
      bin: standard
  (5) compute rdf, occasional, copy from (1)
      attributes: half, newton on
      pair build: copy
      stencil: none
      bin: none
Per MPI rank memory allocation (min/avg/max) = 9.704 | 9.710 | 9.712 Mbytes
Step Temp PotEng c_msd[4] v_twopoint v_fit v_max_n 
    4000   0.58997404   -6.9506141 7.9251304e-31 1.6510686e-32 8.3333333e+20           14 
    4100   0.54395628   -6.9511109  0.024611812 0.00050024002  0.022520215           12 
    4200   0.53395204    -6.989432   0.03652362 0.0007246749  0.015946227            7 
    4300   0.54488029   -6.9807268  0.045579205 0.00088331783  0.012084036            7 
    4400   0.55541384   -7.0644432  0.056502891 0.0010701304  0.010692565           18 
    4500   0.56949678   -6.9850884  0.065975876 0.0012217754  0.010026823           17 
    4600   0.56736295   -7.0464254  0.069292388 0.0012552968 0.0091239676           17 
    4700   0.55667268   -7.0383826  0.074034606 0.0013126702 0.0081521916           14 
    4800   0.52383069   -7.0569228  0.079647025 0.0013827607 0.0074695554           11 
    4900    0.5453417   -7.0028635  0.082615615 0.0014050273 0.0068435577           15 
    5000   0.55152527   -7.0521301  0.087462347 0.0014577056   0.00637452           10 
    5100   0.53158013   -7.0442114  0.094039722 0.0015365966 0.0060344491           12 
    5200   0.56784925    -7.056309  0.094624724 0.0015164217 0.0057198377            8 
    5300   0.55485416   -7.0350302  0.094722881 0.0014893533  0.005340629           23 
    5400   0.54506455   -7.0439028   0.10221151  0.001577338 0.0050463704           15 
    5500   0.53414695   -7.0531027   0.11013767 0.0016687524 0.0048943048           20 
    5600   0.53800968   -7.0485023   0.11311398 0.0016832436 0.0047870418           23 
    5700   0.54832346   -7.0678524   0.11457806 0.0016751177 0.0046508108           17 
    5800    0.5447097   -7.0735819   0.11265388 0.0016185901 0.0044720976           20 
    5900   0.55414031    -7.038083     0.111434 0.0015739265 0.0042506959           18 
    6000   0.55515283   -7.0554648   0.11534077  0.001601955 0.0040418213           14 
    6100   0.54936649   -7.0848611   0.12264867 0.0016755281 0.0039050105           17 
    6200   0.55972266    -7.029991   0.12440355 0.0016720905 0.0038011722           14 
    6300    0.5402431   -7.0979119   0.12301077 0.0016271264 0.0036757324           14 
    6400   0.52237311   -7.0816241   0.12550966 0.0016342402 0.0035422953           22 
    6500   0.56595159   -7.0671638    0.1300669 0.0016675242 0.0034406203           26 
    6600   0.55069881   -7.0237037   0.13247803 0.0016727023 0.0033573058           49 
    6700    0.5186083   -7.0469998   0.13474022 0.0016758733 0.0032789882           36 
    6800   0.56775115   -7.0900655   0.13693138 0.0016780805 0.0032041743           37 
    6900   0.55055416   -7.0667183   0.14530501 0.0017548913 0.0031547821           38 
    7000   0.54858664   -7.1285926   0.15029971 0.0017892821 0.0031296967           59 
    7100    0.5378043   -7.0537509   0.15514301 0.0018209272 0.0031147121           40 
    7200   0.55184899   -7.0426755    0.1582964 0.0018321341 0.0031015908           15 
    7300   0.54522416   -7.0854351   0.15914231 0.0018166929 0.0030844947           23 
    7400   0.53557674   -7.0865149   0.16240194 0.0018288506 0.0030578135           54 
    7500   0.55516035   -7.1089682    0.1693853 0.0018820588 0.0030468318           34 
    7600   0.53534338   -7.0643281   0.16771522 0.0018389826 0.0030296718           48 
    7700   0.56943168   -7.0598768    0.1704919 0.0018451503 0.0030081541           27 
    7800   0.56898147   -7.0687105   0.17253149  0.001843285 0.0029831521           25 
    7900   0.54444478   -7.0758983   0.17645303 0.0018613187 0.0029613783           26 
    8000   0.55212355   -7.0506326   0.17578911 0.0018311364  0.002940344           52 
    8100   0.53679146   -7.0490072   0.17544056 0.0018049439 0.0029041925           33 
    8200   0.52400939   -7.0807387   0.17435836 0.0017719345 0.0028642097           22 
    8300   0.54597767    -7.112511   0.18005836 0.0018078148 0.0028246472           32 
    8400   0.55419276   -7.0647287   0.18234034 0.0018089318 0.0027935797           12 
    8500   0.54821879   -7.0886173   0.18395117 0.0018034428 0.0027628135           31 
    8600   0.54423884   -7.0906899   0.19008322 0.0018418916 0.0027377455           39 
    8700   0.53444281   -7.0736137   0.19194326 0.0018385369  0.002719741           32 
    8800   0.53694478   -7.0582192   0.19335027 0.0018309683 0.0026967859           33 
    8900   0.56451414   -7.0980182   0.18740964 0.0017547719 0.0026648387           25 
    9000   0.53911465   -7.0730896   0.18955543 0.0017551428 0.0026269353           14 
    9100   0.59045859   -7.1098374   0.19158186 0.0017544125 0.0025927989            9 
    9200    0.5308797   -7.0883898   0.19427241 0.0017597137 0.0025615916           16 
    9300   0.53950175   -7.0630458   0.20012658 0.0017932488 0.0025352072           21 
    9400    0.5493641   -7.0835774   0.20184586 0.0017894136 0.0025135997           21 
    9500   0.55954332   -7.0585167   0.19809546 0.0017376794 0.0024880587           26 
    9600   0.55374475    -7.071989   0.19368577    0.0016813 0.0024501663           37 
    9700   0.53793451   -7.0676566   0.19364115 0.0016635836 0.0024101916           46 
    9800   0.55056382   -7.1028044    0.2004854 0.0017048077 0.0023761282           42 
    9900   0.56411326   -7.0963449   0.20296853 0.0017084892 0.0023476851           42 
   10000   0.54599938   -7.0520207   0.20828481 0.0017357067 0.0023239594           73 
   10100   0.52151974   -7.0702043   0.20857681 0.0017209307 0.0023019642           30 
   10200   0.55352515   -7.0960117   0.20978264 0.0017139104 0.0022783821           67 
   10300   0.53617781   -7.0691279   0.21524532 0.0017414669 0.0022591212           74 
   10400   0.54302681   -7.0824448   0.22049365  0.001766776  0.002242981           82 
   10500   0.55405298   -7.0674353   0.22827917 0.0018117393 0.0022347455          129 
   10600   0.55429486   -7.1062596   0.22871082  0.001798041 0.0022280043           97 
   10700   0.53802545   -7.0650614   0.23273192 0.0018125538 0.0022219921           75 
   10800   0.55939078   -7.0855446   0.22929729 0.0017692691 0.0022131022           91 
   10900   0.54112802   -7.0738728   0.22698473 0.0017353572 0.0022003771           49 
   11000   0.55050289    -7.103202   0.21981664 0.0016652775 0.0021793315           83 
   11100   0.55110501   -7.0988299   0.22733799 0.0017067416 0.0021581298           90 
   11200   0.53495581   -7.1172005   0.23095228 0.0017183948 0.0021421957           81 
   11300   0.53898152   -7.1015671   0.23583748 0.0017392144 0.0021288144          103 
   11400   0.54676677   -7.0722842   0.23754695 0.0017364542 0.0021186915          103 
   11500    0.5559524   -7.0657844   0.23970465 0.0017369902 0.0021077301           75 
   11600   0.55285616   -7.0894533    0.2399533 0.0017238023 0.0020963296           86 
   11700   0.54284867   -7.1019984   0.24110093  0.001717243 0.0020840909          100 
   11800   0.55786243   -7.0966994   0.23829592 0.0016828807 0.0020709279           88 
   11900   0.56004813   -7.0665979    0.2368505 0.0016586169  0.002053334           72 
   12000   0.54802257    -7.113829   0.24397721 0.0016942861 0.0020382846           88 
   12100   0.53691566   -7.0818789   0.24459472 0.0016845366 0.0020266997          101 
   12200   0.57932731   -7.0859965   0.23830522 0.0016277679 0.0020103158           61 
   12300    0.5653609   -7.1088326   0.23804374 0.0016127624 0.0019910381           51 
   12400   0.52640391   -7.0776965   0.24408115 0.0016403303 0.0019744023           65 
   12500   0.56768435    -7.066389   0.24555983 0.0016370655 0.0019597523           52 
   12600   0.56263182   -7.0759544    0.2458765 0.0016261672 0.0019449338           72 
   12700   0.53507167   -7.1195422   0.24797002 0.0016270998 0.0019307664           61 
   12800   0.54188242   -7.0801237   0.24835077 0.0016168669  0.001916784           70 
   12900   0.54027063   -7.0614391   0.25402129 0.0016409643 0.0019034952           69 
   13000    0.5050678   -7.0752971   0.25696439 0.0016472075 0.0018930129           73 
   13100    0.5526686   -7.0675525   0.25619044 0.0016297101 0.0018818147           53 
   13200   0.52901039   -7.0908432   0.26245126 0.0016568892 0.0018722177           62 
   13300   0.56655096   -7.0842451   0.25726889 0.0016119604 0.0018620852           72 
   13400   0.54905142   -7.0608103   0.25765213 0.0016023142   0.00184937           92 
   13500   0.54674453   -7.0835132   0.25957489 0.0016023141 0.0018373453           91 
   13600   0.50757477   -7.0695427   0.26456581  0.001621114 0.0018266919           77 
   13700   0.53842989   -7.0912782   0.26699819 0.0016240765 0.0018169059           22 
   13800   0.57002843   -7.0797025   0.25541754 0.0015423764 0.0018053963           65 
   13900   0.56607107   -7.1269364   0.24820624  0.001488047 0.0017875142           82 
   14000   0.53579663   -7.0939804   0.24796107 0.0014759587 0.0017681384           74 
   14100   0.56731383   -7.0994411   0.24942933 0.0014741686 0.0017485941           89 
   14200   0.54606326   -7.1112308   0.25674464 0.0015067173 0.0017322987           95 
   14300   0.55109498   -7.0926628    0.2614757 0.0015237511 0.0017182365           69 
   14400   0.58363939   -7.0991773    0.2694106 0.0015590891 0.0017070677           90 
   14500   0.56456388   -7.1063624   0.27204693 0.0015634881 0.0016989015           63 
   14600   0.53484223   -7.0955096   0.27129128 0.0015484662  0.001689512           80 
   14700    0.5686501   -7.0960903   0.28197363 0.0015984899 0.0016821005          100 
   14800     0.544334   -7.1111526   0.28941509 0.0016295894 0.0016786429          111 
   14900   0.54943783   -7.0917798   0.28715615 0.0016060187 0.0016757894           89 
   15000   0.55564247   -7.1226526   0.28911539 0.0016061966 0.0016713789          116 
   15100   0.51872199   -7.1080246   0.28868597 0.0015931896 0.0016671589          115 
   15200   0.54646042   -7.1034003   0.28493227 0.0015621286  0.001660884           68 
   15300   0.55324357   -7.1388559   0.28789026 0.0015680297 0.0016546297          120 
   15400   0.53673294   -7.1018826   0.28724897 0.0015543775 0.0016483092          153 
   15500   0.51828882   -7.1321937   0.28914064 0.0015545195 0.0016412432          165 
   15600   0.55695292   -7.1088011   0.29114025 0.0015552363 0.0016349479          137 
   15700   0.54591142   -7.1128868   0.28879333 0.0015328733 0.0016281546          139 
   15800   0.51958939   -7.1250981   0.27575638 0.0014544113 0.0016183074          139 
   15900   0.56200793   -7.1023136   0.27522022 0.0014424539 0.0016053878          159 
   16000    0.5722783    -7.138663   0.27885882 0.0014523896  0.001594244          143 
   16100   0.54584249   -7.1217969   0.28102649 0.0014545884 0.0015835574          115 
   16200    0.5546935   -7.1373025   0.28940715 0.0014887199 0.0015744297          133 
   16300   0.55373189   -7.1190245   0.29543125 0.0015103847 0.0015675233          146 
   16400   0.58998102   -7.1217658    0.2958201 0.0015031509 0.0015612311          122 
   16500   0.55241192   -7.1361557   0.30342487 0.0015324488 0.0015560348          135 
   16600   0.56104011   -7.1447629   0.30513976 0.0015318261 0.0015518963          127 
   16700   0.57806751   -7.0881834   0.30491141  0.001521514  0.001547584          130 
   16800    0.5315347   -7.1497628   0.30446992 0.0015102674 0.0015427145          156 
   16900   0.57201594   -7.1461017   0.30136026 0.0014859973 0.0015369914          185 
   17000   0.59167981   -7.1541531   0.30435587 0.0014919405 0.0015310934          197 
   17100   0.54801544   -7.1574072   0.31200375 0.0015204861 0.0015263956          186 
   17200   0.54775431   -7.1342845   0.31466817  0.001524555 0.0015231686          173 
   17300   0.55639294   -7.1373218   0.31629819 0.0015235943 0.0015199831          182 
   17400   0.53367215    -7.104272   0.31346144 0.0015012521 0.0015158757          190 
   17500   0.52612808   -7.1431092   0.31299991 0.0014904757 0.0015112249          159 
   17600   0.53878081   -7.0985507   0.31324844 0.0014831839 0.0015062056          162 
   17700   0.55927885   -7.1016706   0.31881189 0.0015009976 0.0015022027          168 
   17800   0.52067544   -7.1100353    0.3179604 0.0014885786 0.0014981786          175 
   17900    0.5313926   -7.0958921   0.31725749 0.0014769901   0.00149358          204 
   18000   0.53755241   -7.0960892   0.32096332 0.0014859412 0.0014893459          187 
   18100    0.5779928   -7.1372506   0.32296509 0.0014869479 0.0014852394          202 
   18200   0.55551347   -7.1184378   0.32919827  0.001507318 0.0014820536          193 
   18300   0.53392561    -7.148004   0.33321527 0.0015173737 0.0014796267          190 
   18400   0.57798593   -7.1298437   0.33155669 0.0015016154 0.0014773989          184 
   18500   0.54312972   -7.1259984   0.32632918 0.0014699512 0.0014737053          208 
   18600   0.55967561   -7.1443867   0.32419045 0.0014524661 0.0014690773          205 
   18700    0.5744057   -7.0948977   0.32486063 0.0014476855 0.0014637569          226 
   18800   0.53716419   -7.1357719   0.33153649 0.0014695766 0.0014596733          238 
   18900   0.53875704   -7.0996915   0.32650579 0.0014396198 0.0014550074          206 
   19000   0.54697822    -7.089627   0.33054425 0.0014497554 0.0014502463          198 
   19100   0.56185726   -7.1478699    0.3333643  0.001454469 0.0014458698          196 
   19200   0.58572764   -7.1393791   0.33121799 0.0014375781 0.0014416183          173 
   19300   0.55677346    -7.127613   0.33284559 0.0014371571 0.0014371884          188 
   19400   0.56317342   -7.1476007   0.33061459 0.0014201657 0.0014322106          229 
   19500    0.5560969   -7.0999065   0.33331951 0.0014244423  0.001427545          176 
   19600   0.52282838   -7.1029967   0.33262001 0.0014142007 0.0014226132          198 
   19700   0.55821735   -7.1261794   0.33175083 0.0014033453 0.0014174846          199 
   19800   0.52198371   -7.1442845    0.3372282 0.0014193106 0.0014124532          199 
   19900   0.55773905   -7.1112668   0.33825904 0.0014164951 0.0014081747          238 
   20000   0.55998284   -7.1285082   0.33637689 0.0014015703 0.0014033558          217 
   20100    0.5532471   -7.1537924    0.3368273 0.0013964647 0.0013987028          248 
   20200   0.53148731   -7.1297842   0.33498892 0.0013819675 0.0013932129          226 
   20300   0.54396767   -7.1132343   0.33213415 0.0013634406 0.0013873607          225 
   20400   0.56077366   -7.1115136   0.33360431 0.0013627627 0.0013811045          227 
   20500    0.5386563   -7.1116081   0.33860725 0.0013764522  0.001375948          262 
   20600   0.56356735   -7.1658864   0.34049217 0.0013773955 0.0013708812          256 
   20700    0.5509601   -7.1085005    0.3443757 0.0013863756 0.0013662248          243 
   20800   0.54216231    -7.154193    0.3464942 0.0013881979 0.0013621711          222 
   20900   0.55207117   -7.1461142   0.34763476 0.0013861035 0.0013580783          237 
   21000    0.5707877   -7.1246264   0.35257544 0.0013991088 0.0013545341          238 
   21100    0.5269141   -7.1296088   0.35861952 0.0014163488 0.0013517367          222 
   21200   0.53260561   -7.0994726   0.36065991 0.0014176883 0.0013493867          235 
   21300   0.56347682   -7.1482232   0.36266996 0.0014188965 0.0013470188          241 
   21400   0.54300088   -7.1416874   0.36486517 0.0014208145  0.001345108          259 
   21500   0.55661357   -7.1390958   0.36819183 0.0014271001 0.0013431662          246 
   21600   0.57101326   -7.0810977   0.36756404 0.0014180711 0.0013416264          263 
   21700   0.52026669   -7.1368368   0.36520562 0.0014024793 0.0013393501          268 
   21800   0.55307865    -7.139573   0.36717369 0.0014035691 0.0013365697          285 
   21900   0.55133674    -7.131997   0.37735934 0.0014359183 0.0013350337          294 
   22000   0.54911677    -7.102487   0.36596233 0.0013862209 0.0013332296          281 
   22100   0.52652741   -7.1412556   0.36816116 0.0013882396 0.0013301577          295 
   22200   0.56428804    -7.150927   0.37465335 0.0014063564  0.001327827          301 
   22300   0.56308615   -7.1491415    0.3882568 0.0014508849 0.0013268225          280 
   22400   0.55552814   -7.0906964   0.39553721 0.0014714926 0.0013273219          290 
   22500   0.55729321    -7.166788   0.39641753  0.001468213  0.001328092          289 
   22600   0.56722822   -7.1746096   0.39014601 0.0014385914 0.0013280754          292 
   22700   0.57459656   -7.1052937   0.38936045 0.0014293702 0.0013272681          270 
   22800   0.55207413   -7.1538911   0.38759386 0.0014166442  0.001326305          285 
   22900   0.55902354   -7.1171833    0.3906899 0.0014217245 0.0013251069          284 
   23000   0.55251823   -7.1900169   0.38964111 0.0014117431 0.0013238771          298 
   23100   0.55885261    -7.142033   0.38069378 0.0013733542 0.0013217278          278 
   23200   0.53930554   -7.1290084   0.37702271 0.0013542482 0.0013184446          275 
   23300   0.54417668   -7.0960325   0.38841297 0.0013891737 0.0013157535          289 
   23400   0.52730099   -7.1213456   0.39290588 0.0013992374 0.0013142082          289 
   23500   0.55199495   -7.1315042   0.39078971 0.0013857791 0.0013125093          281 
   23600   0.54210318     -7.09208   0.39012531 0.0013775611 0.0013103874          307 
   23700   0.54235607   -7.1657476   0.38458969 0.0013522844  0.001307623          327 
   23800   0.55785794   -7.1763418   0.39196532 0.0013724275 0.0013050601          299 
   23900   0.55985807   -7.1338452    0.3977946 0.0013870104 0.0013032006          281 
   24000   0.54216265   -7.1255705   0.40833104 0.0014178161  0.001302166          274 
   24100   0.56177424   -7.1316247   0.40688819 0.0014069439 0.0013018653          270 
   24200   0.54853085   -7.1479988   0.39473776 0.0013592898   0.00130014          291 
   24300   0.53591269   -7.1630783   0.39562682 0.0013567449 0.0012974668          278 
   24400   0.54631123   -7.1080269   0.39651242 0.0013542091 0.0012950281          273 
   24500   0.52435206   -7.1230482   0.39813371 0.0013541963 0.0012926689          279 
   24600    0.5456723    -7.158133   0.39287742 0.0013308856 0.0012897279          252 
   24700   0.55155974   -7.1275984   0.39892329  0.001345895 0.0012869964          267 
   24800   0.54145053   -7.0967865   0.40155434 0.0013493089 0.0012844579          251 
   24900    0.5414611   -7.1380417   0.40171222 0.0013444184 0.0012822842          262 
   25000   0.56792989   -7.1633951   0.40099923 0.0013366641 0.0012797448          287 
   25100   0.55806063   -7.1535288   0.39886734 0.0013242607 0.0012770382          288 
   25200   0.56247791   -7.0953331   0.40686072 0.0013454389 0.0012745072          313 
   25300     0.545964    -7.165057   0.40994837  0.001350291 0.0012726948          310 
   25400   0.56135538   -7.1287576   0.40723545 0.0013360743 0.0012705882          323 
   25500   0.55215873   -7.1579029   0.40477711  0.001322801 0.0012681764          306 
   25600   0.57794606   -7.1515166   0.39816744 0.0012961179 0.0012650649          297 
   25700   0.56326813   -7.0917424    0.4042974 0.0013109513 0.0012620585          274 
   25800   0.53889209   -7.1554707    0.4079038 0.0013175187 0.0012594501          276 
   25900   0.52602682   -7.1303748   0.40743876 0.0013109355 0.0012567218          289 
   26000   0.56217126   -7.1658137   0.40568844 0.0013002834 0.0012539959          287 
   26100   0.57182504   -7.1748261   0.40859279 0.0013045747 0.0012510418          305 
   26200   0.54046688   -7.1669988   0.40895749 0.0013007554 0.0012484523          292 
   26300   0.53575792   -7.1463658   0.40842482 0.0012941217 0.0012454685          305 
   26400   0.56560908   -7.1351873   0.41698505 0.0013162407 0.0012429898          342 
   26500   0.53763004   -7.1691793   0.42262239 0.0013290012 0.0012411833          329 
   26600    0.5320994   -7.1461965   0.42569351 0.0013336263 0.0012395544          294 
   26700   0.57138626    -7.131777   0.43196069 0.0013481919 0.0012384192          308 
   26800   0.54902115   -7.1524598   0.42949937  0.001335508 0.0012371793          290 
   26900    0.5627969    -7.141193   0.42641518 0.0013209888 0.0012355841          288 
   27000   0.56443771    -7.207938   0.42732256 0.0013188968 0.0012338644          283 
   27100   0.53883922   -7.1768759   0.42720759 0.0013136764 0.0012321189          280 
   27200   0.55520359   -7.1543065   0.42656318 0.0013068725 0.0012302915          284 
   27300   0.56472063   -7.1890936   0.42713999 0.0013038461 0.0012281194          295 
   27400   0.54991079   -7.1566115   0.42643916 0.0012969561 0.0012261384          303 
   27500   0.55800059   -7.1430334   0.43353119 0.0013137309 0.0012241942          333 
   27600   0.54531843    -7.135785   0.43341531 0.0013086211 0.0012225651          296 
   27700   0.53533149   -7.1688208   0.42722096 0.0012852616 0.0012205145          315 
   27800   0.53787316   -7.1148792   0.42305597 0.0012681534 0.0012179277          291 
   27900   0.57329284   -7.1575251   0.42164508 0.0012593939 0.0012149962          307 
   28000    0.5294164   -7.1133504   0.42606836 0.0012680606 0.0012121475          322 
   28100   0.54312691   -7.1760247   0.42940204 0.0012734343 0.0012096426          265 
   28200   0.53636717   -7.1560373   0.43213277 0.0012769881 0.0012072914          275 
   28300   0.55081159   -7.1487983   0.43242513 0.0012733366 0.0012050305          302 
   28400   0.52485013   -7.1048371   0.43632605 0.0012802994 0.0012028819          283 
   28500   0.59103472   -7.1820673   0.43045187 0.0012586312 0.0012006442          293 
   28600   0.55188682   -7.1376056   0.42150453   0.00122816 0.0011976753          302 
   28700   0.57510499   -7.1490869   0.42900226 0.0012456511 0.0011945715          283 
   28800   0.55575156   -7.1796771   0.42946892 0.0012426763   0.00119199          288 
   28900   0.57483961   -7.1173045   0.43214029 0.0012460793  0.001189222          295 
   29000   0.54004133   -7.1600027   0.43463515 0.0012489515 0.0011866366          260 
   29100   0.57921166   -7.1730883   0.43665756 0.0012504512 0.0011840784          281 
   29200   0.52835373   -7.1213076   0.44817418 0.0012790359 0.0011821371          264 
   29300   0.53085028   -7.1777426   0.44552106 0.0012671247 0.0011804204          313 
   29400   0.55419518   -7.1373751   0.45117967 0.0012788539 0.0011788267          290 
   29500    0.5529052    -7.134327   0.44831956 0.0012664394 0.0011773296          292 
   29600   0.51650204   -7.1412153   0.44567717 0.0012547217 0.0011754056          322 
   29700   0.54371717    -7.130891   0.44809095 0.0012572698  0.001173402          320 
   29800   0.55399517   -7.1106846   0.44083988 0.0012327737 0.0011712168          301 
   29900   0.53396361   -7.1478986   0.44499605 0.0012402342 0.0011688998          275 
   30000   0.55656042   -7.1043574   0.44781731  0.001243937 0.0011666946          303 
   30100   0.55464416   -7.1515495   0.45006697 0.0012460326 0.0011647497          280 
   30200   0.53088348    -7.144517   0.46049565 0.0012706833 0.0011632042          317 
   30300   0.58603886   -7.1205574   0.46176556 0.0012699823     0.001162          317 
   30400    0.5638374   -7.1639034   0.45218993 0.0012395557 0.0011602916          312 
   30500   0.53487895   -7.1441899   0.46332173 0.0012659063 0.0011587327          295 
   30600   0.57610109   -7.1494302   0.46614278  0.001269452 0.0011576113          335 
   30700   0.52231923   -7.0960881   0.45910486  0.001246213 0.0011561211          311 
   30800   0.55059807   -7.1522187   0.46894701  0.001268796 0.0011547384          313 
   30900   0.55627277    -7.145578   0.46427151 0.0012520806 0.0011534299          295 
   31000   0.53599951   -7.1761899   0.46412766  0.001247655 0.0011519233          310 
   31100   0.55758958   -7.1289284   0.46784828 0.0012536127 0.0011505291          324 
   31200   0.55977122   -7.1562973   0.46750667 0.0012486823 0.0011491058          293 
   31300   0.52097489   -7.1183954   0.47272102 0.0012585756 0.0011477629          288 
   31400   0.55629611   -7.1662483   0.47119112 0.0012505072 0.0011465653          330 
   31500   0.53827114   -7.1671572   0.47245736 0.0012498872 0.0011453264          329 
   31600   0.54649792   -7.1594462   0.47981031 0.0012653225 0.0011440658          328 
   31700   0.57102467   -7.2051599   0.48524702  0.001275623 0.0011434444          321 
   31800   0.55942943   -7.1326702   0.47656941 0.0012488716 0.0011425168          315 
   31900   0.57895749    -7.130836   0.47014796 0.0012281817 0.0011410231          310 
   32000   0.54766252   -7.1722874   0.47378095 0.0012338045 0.0011393568          320 
   32100   0.54596061   -7.1521654   0.47249879 0.0012266324 0.0011377756          320 
   32200   0.52639755   -7.1386569    0.4828679 0.0012496581 0.0011364074          320 
   32300   0.55830302   -7.1260781   0.48416126  0.001249126 0.0011354847          327 
   32400   0.55396332   -7.1609747   0.48095611  0.001237027 0.0011341698          310 
   32500   0.54368425   -7.1326768   0.47598635 0.0012204778 0.0011327014          309 
   32600   0.56347459   -7.1702106   0.47714087 0.0012196852 0.0011309514          322 
   32700   0.57639727   -7.1568081   0.48041107 0.0012242892 0.0011294613          324 
   32800   0.56518596   -7.1289109   0.47869668 0.0012162009 0.0011278692          315 
   32900   0.54702357   -7.1548642   0.47374608 0.0011999647 0.0011260569          300 
   33000   0.53095623   -7.1549415   0.47684047 0.0012041426 0.0011242393          332 
   33100   0.55959227   -7.1624786   0.47660381 0.0011999089 0.0011222384          360 
   33200   0.53358356   -7.1495896   0.47881575 0.0012018468 0.0011203963          347 
   33300   0.55077521   -7.1888179    0.4874425 0.0012198261 0.0011188593          336 
   33400   0.57970326   -7.1361486    0.4912572 0.0012256916 0.0011176336          325 
   33500   0.53535621   -7.1664984   0.50027665 0.0012444693 0.0011167301          335 
   33600   0.53657119   -7.1452568   0.50375574 0.0012493942 0.0011161543          339 
   33700   0.56923615   -7.1402615   0.51455483 0.0012723908 0.0011159046          324 
   33800   0.54221905   -7.1753943    0.5056466 0.0012466632 0.0011156569          332 
   33900   0.54835164    -7.153943   0.50012377 0.0012294094 0.0011148323          321 
   34000    0.5625748   -7.1511541   0.49934849 0.0012238933 0.0011137322          340 
   34100   0.57535788   -7.1738484    0.5017389 0.0012261459 0.0011127164          361 
   34200   0.54557782   -7.1587967    0.4973134 0.0012117773 0.0011115439          369 
   34300   0.55577402     -7.13963   0.49737782 0.0012084009 0.0011102109          367 
   34400   0.53367639   -7.1457994   0.49914145 0.0012091605 0.0011088825          366 
   34500   0.52051544   -7.1799236   0.50083811 0.0012097539 0.0011075739          387 
   34600   0.53598793   -7.1713189    0.5028524 0.0012111088 0.0011063386          370 
   34700   0.56038956   -7.1504619   0.50736686 0.0012184603 0.0011052891          354 
   34800   0.56785297   -7.1308933   0.49677123 0.0011895863 0.0011040881          390 
   34900   0.55490621   -7.2090999   0.49967606 0.0011931138 0.0011024482          369 
   35000   0.55704979   -7.1436619   0.50715122 0.0012075029 0.0011011838          381 
   35100   0.56591149   -7.1760585   0.52165309 0.0012384926 0.0011004962          403 
   35200   0.54273958   -7.1578012   0.52261939 0.0012372618 0.0011001162          371 
   35300   0.55140775   -7.1605821   0.52408004  0.001237205 0.0010996384          380 
   35400   0.56213504    -7.161123   0.53323943 0.0012552717 0.0010994744          383 
   35500   0.57070877   -7.1541225   0.52992185  0.001243948 0.0010993567          374 
   35600   0.55065317   -7.1942274   0.53233537 0.0012461034 0.0010991376          369 
   35700   0.54985487   -7.1365712   0.53624523 0.0012517396 0.0010990741          385 
   35800   0.54200325   -7.1699532   0.53761434   0.00125143 0.0010989882          394 
   35900   0.54930031   -7.1968901   0.53244186 0.0012359374 0.0010986647          379 
   36000   0.56549003    -7.154521   0.53491457 0.0012382282   0.00109833          379 
   36100    0.5462713   -7.1720252    0.5407305 0.0012482237 0.0010981497          361 
   36200   0.55858527    -7.177681   0.53457507 0.0012306056 0.0010979066          358 
   36300   0.56891291   -7.1725798   0.53678857  0.001232297 0.0010974981          355 
   36400   0.54385621   -7.1858495   0.52305788 0.0011974768 0.0010966853          357 
   36500   0.58024393   -7.1704322   0.52564358 0.0012000995 0.0010957228          394 
   36600   0.56924763   -7.1833377   0.53042662 0.0012077109 0.0010948032          407 
   36700   0.53944693   -7.1883519    0.5420143 0.0012307318 0.0010941746          411 
   36800   0.52463322   -7.1680723   0.54807267 0.0012411066 0.0010939837          379 
   36900   0.55527235   -7.1704487   0.54780595 0.0012371408 0.0010937804          403 
   37000   0.53649843   -7.1348899    0.5478474 0.0012338905 0.0010936072          359 
   37100   0.57880649   -7.1275176   0.55153884 0.0012388563 0.0010934375          375 
   37200   0.54590031    -7.179026   0.55474794 0.0012427149  0.001093351          373 
   37300   0.53832075   -7.1759259   0.55523136 0.0012404633 0.0010933141          404 
   37400   0.58272323   -7.1478494   0.54563927 0.0012157738 0.0010929255          385 
   37500    0.5626368   -7.1627727   0.54366092 0.0012081354 0.0010922266          358 
   37600   0.55127178   -7.1853835   0.54307472  0.001203623 0.0010915513          374 
   37700   0.54813824   -7.1627137   0.54258659 0.0011993514  0.001090669          385 
   37800   0.54424536    -7.129393   0.54620436 0.0012041542 0.0010898876          338 
   37900   0.52332021   -7.1706781   0.55798162 0.0012268725 0.0010894328          338 
   38000   0.55068936   -7.1404032   0.57032939 0.0012507223 0.0010893867          362 
   38100     0.588186   -7.1734607   0.58353037 0.0012763131 0.0010898661          378 
   38200   0.57990638   -7.1562417   0.58144626 0.0012684255 0.0010905701          375 
   38300   0.54326714   -7.1785657   0.58880109 0.0012811164 0.0010913114          381 
   38400   0.56129801   -7.1836498    0.5861227 0.0012719676 0.0010920372          406 
   38500   0.54211437   -7.1526662   0.58090117 0.0012573618  0.001092592          371 
   38600   0.54450551    -7.166778   0.56583862 0.0012215859 0.0010925344          408 
   38700   0.54278371   -7.1761892    0.5559459 0.0011971273 0.0010919441          459 
   38800   0.53998266   -7.2241416   0.57211719  0.001228774 0.0010914463          431 
   38900   0.55866994   -7.1777279   0.57003855 0.0012211623 0.0010912252          437 
   39000   0.54247963   -7.1968868   0.57547061  0.001229638 0.0010909878          430 
   39100   0.53378258   -7.1839194    0.5736432 0.0012225984 0.0010907342          449 
   39200   0.57531694   -7.2181763   0.57745862 0.0012275906 0.0010905109          482 
   39300   0.53391997   -7.1433322   0.58265009 0.0012354752 0.0010905159          466 
   39400   0.57476289   -7.1788962   0.58003497 0.0012268083 0.0010904665          483 
   39500   0.55792705   -7.1748941   0.57924849 0.0012220432 0.0010902072          488 
   39600   0.52150244   -7.1865206   0.57824623 0.0012168481 0.0010899343          484 
   39700   0.55028526   -7.1762297   0.58686861  0.001231882 0.0010897099          518 
   39800   0.53761606   -7.2205458   0.59076458 0.0012369443 0.0010898368          521 
   39900   0.52088611   -7.2220357   0.59673121 0.0012463058 0.0010899644          494 
   40000   0.55367239   -7.2086839    0.5954784   0.00124058 0.0010901972          497 
   40100   0.57201936   -7.1691257   0.59043351 0.0012270023 0.0010902087          498 
   40200   0.56005078   -7.1516477   0.60494662 0.0012540353 0.0010904643          477 
   40300   0.55551379   -7.1917297   0.61497514 0.0012716607 0.0010910471          471 
   40400   0.56387768   -7.2219291   0.61526911 0.0012691194 0.0010917806          495 
   40500   0.53249977   -7.2262705   0.62074052 0.0012772439 0.0010925219          502 
   40600   0.56727258   -7.2202709   0.62179135 0.0012762548  0.001093407          500 
   40700   0.56714196   -7.1733227   0.60296936  0.001234581 0.0010937333          484 
   40800   0.55797814   -7.1676793   0.60032436 0.0012261527 0.0010937132          457 
   40900   0.56013505   -7.1652906   0.60744813 0.0012376694 0.0010937529          492 
   41000    0.5443654   -7.2026963   0.61117595 0.0012422275 0.0010938747          494 
   41100   0.57350461   -7.2114134   0.61201829  0.001240913 0.0010940548          501 
   41200   0.58912852   -7.1743103    0.6121493  0.001238166 0.0010942645          514 
   41300   0.53221184   -7.1891548    0.6140703 0.0012390442 0.0010944031          532 
   41400   0.54561906   -7.2084077   0.61222303  0.001232333 0.0010944833          531 
   41500   0.57397648   -7.1719355   0.61771513 0.0012403918 0.0010946093          537 
   41600   0.54830988   -7.2316242   0.62504465 0.0012520926 0.0010949283          519 
   41700   0.55742227   -7.2314863   0.62221899 0.0012434432 0.0010952195          526 
   41800   0.56116594   -7.2152785   0.62374437 0.0012435095 0.0010954817          532 
   41900   0.55459875   -7.1997763   0.61244012 0.0012180591 0.0010955539          520 
   42000   0.53492785   -7.2187733   0.60887988  0.001208095  0.001095263          542 
   42100   0.54021159   -7.2084687   0.61326695 0.0012139092 0.0010949534          549 
   42200   0.54562985   -7.2090598   0.61625664 0.0012169365 0.0010947961          543 
   42300   0.53466224   -7.1988557   0.61503453 0.0012116519 0.0010946214          538 
   42400   0.52860818   -7.2565466   0.61832214 0.0012152558 0.0010943102          579 
   42500   0.55364073   -7.1795345   0.62428493 0.0012240881 0.0010942494          590 
   42600   0.55589036    -7.216053   0.62444476 0.0012215273 0.0010941874          595 
   42700   0.51745768   -7.1800969   0.63001176 0.0012295311 0.0010942121          596 
   42800   0.51305402    -7.213023    0.6324509 0.0012314075 0.0010942957          561 
   42900   0.53931888   -7.2124834   0.63692862 0.0012372351 0.0010944909          549 
   43000   0.55538118   -7.2223987   0.63874945 0.0012378865 0.0010947164          568 
   43100   0.53495699   -7.2088376   0.63720204 0.0012320225  0.001094896          600 
   43200    0.5626797   -7.2552371   0.64417198 0.0012426157  0.001095096          632 
   43300   0.53252499   -7.2496262   0.64942525 0.0012498561 0.0010954868          627 
   43400   0.54446072   -7.2306483   0.65549343 0.0012586279 0.0010958808          619 
   43500   0.54686538   -7.2367213   0.67008114 0.0012836803 0.0010967501          611 
   43600   0.54890691   -7.2372592   0.66473226 0.0012705127 0.0010976403          596 
   43700   0.52377555   -7.2001421   0.66623951 0.0012704796 0.0010983942          595 
   43800    0.5323607   -7.2180396   0.66855269   0.00127198 0.0010991085          605 
   43900   0.54815818   -7.2316945   0.66768336 0.0012674323 0.0010997736          605 
   44000   0.53986192   -7.2191746   0.67092524 0.0012706917 0.0011005154          621 
   44100   0.53823734    -7.239449   0.66623373 0.0012589451 0.0011011589          646 
   44200   0.55235217   -7.2527452   0.65940531 0.0012432227  0.001101543          600 
   44300   0.57263614   -7.2308612   0.65902272 0.0012396966 0.0011018087          598 
   44400   0.53059879   -7.2385491   0.66467999 0.0012475225 0.0011021321          604 
   44500   0.53361562   -7.2494895   0.67398467 0.0012621436 0.0011026256          599 
   44600   0.55338176   -7.2014086   0.66735416 0.0012469248 0.0011030536          599 
   44700   0.56906044   -7.2403431   0.66128475 0.0012328202 0.0011032771          614 
   44800   0.56199022   -7.2413953   0.66380459 0.0012347556 0.0011034478          626 
   44900   0.55364044   -7.2699059   0.67065601 0.0012447216 0.0011036966          625 
   45000   0.54747442   -7.2253183   0.67755037 0.0012547229 0.0011040827          604 
   45100   0.56190958    -7.248943   0.67556844 0.0012482787 0.0011044702          589 
   45200   0.53837005   -7.2493868    0.6716344  0.001238264 0.0011047783          587 
   45300   0.56406675   -7.2432813   0.66242335  0.001218586 0.0011048651          597 
   45400    0.5536469   -7.2733103   0.65619751 0.0012044741 0.0011045444          593 
   45500    0.5476441   -7.2878527   0.65902583  0.001207007 0.0011042323          615 
   45600   0.56036602   -7.2417136   0.67078527 0.0012258503  0.001104153          610 
   45700   0.54715541   -7.2659922   0.68571049 0.0012503838 0.0011043774          598 
   45800   0.54240286   -7.2434381   0.68310491 0.0012429129 0.0011047344          590 
   45900    0.5665085   -7.2278075   0.68812447 0.0012493182 0.0011051367          617 
   46000   0.56899879   -7.2680274   0.67569791 0.0012240904 0.0011053438          618 
   46100   0.55580787   -7.2981456   0.67534117 0.0012207903 0.0011052665          600 
   46200   0.56989123   -7.2647745   0.68196792 0.0012301008 0.0011053471          624 
   46300   0.54480664   -7.2967833   0.67603636 0.0012167681 0.0011053703          600 
   46400   0.55931722   -7.2552247   0.67827769 0.0012181711 0.0011052197          613 
   46500   0.54626312   -7.2443326   0.68496581 0.0012275373 0.0011052747          615 
   46600   0.53069571   -7.2786861   0.68149365 0.0012186939 0.0011052726          616 
   46700   0.55591055   -7.2478048   0.68302923 0.0012188244 0.0011052581          622 
   46800   0.54369112   -7.2405495   0.68438018 0.0012186257 0.0011052603          609 
   46900   0.54409609   -7.2759627   0.67836528 0.0012053399 0.0011051212          594 
   47000   0.56414454   -7.2384108   0.68236159  0.001209861 0.0011048949          594 
   47100   0.55822148   -7.2706333   0.68555903 0.0012129494 0.0011047684          621 
   47200   0.52817186   -7.2683122   0.67522652 0.0011921372 0.0011045397          606 
   47300   0.53016893   -7.2995573   0.68887168 0.0012136569 0.0011042572          594 
   47400   0.54406908   -7.2314605   0.68867228 0.0012107459 0.0011041451          626 
   47500   0.55817405   -7.2559665   0.69555569 0.0012202731 0.0011041382          628 
   47600   0.55232065   -7.2769887   0.70198613 0.0012289673 0.0011042325          647 
   47700    0.5226468   -7.3005325   0.69736411  0.001218316 0.0011042902          627 
   47800   0.54076602   -7.2607595   0.68302243 0.0011907643 0.0011040562          650 
   47900   0.55961961   -7.2669288   0.67829559 0.0011800549 0.0011035667          647 
   48000   0.57886139    -7.295099   0.68492098 0.0011890989 0.0011030771          669 
   48100    0.5722486   -7.2623812   0.69566161 0.0012052349 0.0011028317          616 
   48200   0.53189137    -7.255946   0.69750459 0.0012059208 0.0011026193          639 
   48300   0.56745981   -7.2807044   0.71023303 0.0012253848 0.0011026353          657 
   48400   0.56882622   -7.2654088   0.71952884 0.0012388582 0.0011029476          640 
   48500   0.54270342   -7.3026933   0.71460404  0.001227842  0.001103175          636 
   48600   0.53379185   -7.2906164   0.71618096 0.0012280195 0.0011033725          640 
   48700   0.56132995   -7.2684719   0.72229062 0.0012359524 0.0011035736          619 
   48800    0.5252081   -7.2584325    0.7200296 0.0012295587 0.0011038802          630 
   48900   0.57041286   -7.2460109   0.72133873 0.0012292753 0.0011040512          623 
   49000   0.55438389   -7.2910207   0.72611267 0.0012348855 0.0011043025          626 
   49100   0.53949319   -7.2711719   0.71860016 0.0012196201 0.0011044791          637 
   49200   0.54512889   -7.2825396   0.71396464 0.0012092897 0.0011044664          639 
   49300   0.54631655   -7.2868536   0.71538262 0.0012092336 0.0011044131          634 
   49400   0.56355335   -7.2890472   0.71952264 0.0012137696 0.0011043602          629 
   49500   0.56094061   -7.3143707   0.71461423 0.0012030543 0.0011042771          609 
   49600   0.55833701    -7.301038   0.72336605 0.0012153327 0.0011042381          611 
   49700   0.55759758   -7.2539045   0.71591545 0.0012003948 0.0011041306          604 
   49800   0.54803558   -7.2879227   0.71357275 0.0011940642  0.001103917          647 
   49900    0.5607649   -7.2927868   0.71819871 0.0011993966 0.0011036928          658 
   50000   0.58758479   -7.2739671   0.70996038 0.0011832673 0.0011033786          653 
   50100      0.56325   -7.2725646   0.70917651 0.0011796016 0.0011029459          659 
   50200     0.555219   -7.2907901   0.71461309 0.0011862767 0.0011024835          673 
   50300   0.55340835   -7.2653721   0.71796024 0.0011894636 0.0011021967          654 
   50400   0.53649565   -7.2263858   0.72351167 0.0011962825 0.0011019511          641 
   50500   0.57045863   -7.3111186   0.73393534 0.0012111144  0.001101846          666 
   50600   0.56285576   -7.2813087   0.73411131 0.0012090107 0.0011018467          649 
   50700    0.5821333   -7.2548879   0.72646126  0.001194052 0.0011016892          656 
   50800   0.55756819   -7.2680276   0.72337317 0.0011866358 0.0011013853          664 
   50900   0.55249644   -7.2900489   0.71327362 0.0011677695 0.0011009719          678 
   51000   0.55371878   -7.2994178   0.71847795 0.0011739836 0.0011003971          675 
   51100   0.54901289   -7.2786303   0.72537913 0.0011829405 0.0011000066          657 
   51200    0.5797221   -7.2941079   0.72223677 0.0011755156 0.0010996312          665 
   51300    0.5475228   -7.3009506   0.71187617  0.001156394 0.0010990235          658 
   51400   0.51917216   -7.3018186   0.70310832 0.0011399292 0.0010981838          670 
   51500   0.54552809   -7.3012745   0.71614421 0.0011588094 0.0010974161          689 
   51600    0.5430656   -7.2442247    0.7230714  0.001167751 0.0010968682          680 
   51700   0.53520489   -7.2794313   0.71835451 0.0011578893 0.0010963295          669 
   51800   0.52538251   -7.2714091   0.70983994 0.0011419561 0.0010955104          674 
   51900    0.5894725   -7.3113703   0.70149164 0.0011263514  0.001094549          675 
   52000   0.53348749   -7.2856822   0.71395926 0.0011441655 0.0010936236          671 
   52100   0.55618591   -7.2923173   0.70935683 0.0011346078 0.0010927261          653 
   52200   0.57544656   -7.2383282    0.7086153 0.0011312505 0.0010918055          650 
   52300   0.54863572   -7.3206069    0.7150181 0.0011392895  0.001090924          674 
   52400   0.55264046   -7.2595979   0.72072681  0.001146194 0.0010901755          674 
   52500   0.54788451   -7.2887498     0.707136 0.0011224381 0.0010892763          678 
   52600   0.52606737   -7.2786309   0.70603565 0.0011185609  0.001088215          660 
   52700   0.56141531   -7.3036154   0.71663512 0.0011331991 0.0010872828          677 
   52800   0.53937929   -7.2674177   0.71396512 0.0011268389  0.001086349          668 
   52900   0.58306557    -7.273755   0.71718351 0.0011297787 0.0010854716          657 
   53000   0.54968785   -7.2829161   0.71918642 0.0011307962 0.0010846879          656 
   53100   0.53230336   -7.2862468   0.70539962 0.0011070302 0.0010836244          673 
   53200   0.54874131   -7.2730552   0.71097148 0.0011136771 0.0010825127          679 
   53300   0.53650954   -7.2788364   0.72284169 0.0011301465 0.0010815991          668 
   53400    0.5607295   -7.2826446   0.72019705  0.001123903 0.0010807695          670 
   53500   0.57701945    -7.300777    0.7258413 0.0011305939 0.0010799582          668 
   53600   0.54503981   -7.2806683   0.72290914 0.0011239259 0.0010791107          659 
   53700   0.54849619   -7.3152776   0.72626937 0.0011270474 0.0010782833          687 
   53800    0.5574834   -7.2079382   0.73445705 0.0011376348 0.0010775335          690 
   53900   0.53237241   -7.2737753   0.73504095 0.0011364269 0.0010768878          663 
   54000   0.52507606   -7.2756228   0.73470227 0.0011337998 0.0010761773          679 
   54100   0.54383949    -7.282669   0.72872881 0.0011225028 0.0010754095          672 
   54200   0.54969682   -7.2524295   0.73503508 0.0011301277 0.0010746247          670 
   54300   0.55655575   -7.2745535   0.74460352  0.001142731 0.0010740743          678 
   54400   0.54370267   -7.2750388    0.7379214 0.0011303943 0.0010734071          664 
   54500   0.51933767   -7.2891853   0.72717652 0.0011118907 0.0010725963          651 
   54600   0.54891528   -7.2789451   0.73130609  0.001116157 0.0010716722          676 
   54700   0.54179922   -7.2853844   0.74293238 0.0011318287 0.0010708998          680 
   54800   0.54757651   -7.2945953   0.74422481 0.0011317287 0.0010702815          679 
   54900   0.52162891   -7.2451287   0.74490403 0.0011306983 0.0010695977          666 
   55000   0.54319537   -7.2620502   0.73650875 0.0011159223 0.0010688568          644 
   55100   0.52687648   -7.3268202   0.73600883  0.001113141 0.0010679868          678 
   55200   0.53894833   -7.2779385   0.73530373   0.00111006 0.0010671225          684 
   55300   0.56173626   -7.2728878    0.7398429 0.0011148928  0.001066292          667 
   55400    0.5665133   -7.3054961   0.73759245 0.0011094953 0.0010654221          663 
   55500   0.54273696   -7.2922267   0.73592466  0.001104992 0.0010645083          667 
   55600   0.52524159     -7.32378   0.73433238 0.0011006181 0.0010635486          649 
   55700   0.55556721   -7.2707921   0.73887041 0.0011054315 0.0010626878          643 
   55800   0.56212993   -7.2725309   0.72770719  0.001086779  0.001061669          665 
   55900   0.55145642   -7.3348973   0.72735091 0.0010843037 0.0010605715          661 
   56000   0.54581406   -7.2691818     0.740382 0.0011017589 0.0010595641          660 
   56100    0.5719858    -7.320355   0.74786622 0.0011109124 0.0010587004          656 
   56200   0.55975302   -7.3035054   0.75641875 0.0011216174 0.0010580467          644 
   56300    0.5307168   -7.3165309   0.76683267 0.0011350395 0.0010575366          682 
   56400   0.55656263    -7.264607   0.75754831  0.001119309 0.0010570436          649 
   56500   0.56540235    -7.307881   0.74942922 0.0011053528 0.0010563115          664 
   56600   0.53692645   -7.2981344   0.73747161 0.0010857945 0.0010554001          652 
   56700   0.55700383   -7.2953301   0.74115378 0.0010892913 0.0010543461          676 
   56800   0.55502372   -7.2288135   0.74576162 0.0010941338 0.0010534301          668 
   56900   0.57548056   -7.3246802   0.74276907 0.0010878281 0.0010525055          687 
   57000    0.5714715   -7.3113883   0.73814057 0.0010791529 0.0010514988          672 
   57100   0.57720527   -7.2948076   0.73703247 0.0010756457 0.0010504236          652 
   57200   0.55774347   -7.2802108   0.73888163 0.0010764592 0.0010493727          654 
   57300   0.53407274   -7.2760129   0.74083465 0.0010774209 0.0010483044          638 
   57400   0.55667926    -7.297231   0.74311939 0.0010788609 0.0010472656          656 
   57500   0.52498363   -7.3200347   0.75035404 0.0010874696 0.0010462986          668 
   57600   0.54963126   -7.2709889    0.7476109  0.001081613 0.0010453744          655 
   57700   0.56807179   -7.2940706   0.75720042 0.0010935881 0.0010444963          633 
   57800    0.5417882   -7.2844233   0.75421596 0.0010873932 0.0010436772          660 
   57900    0.5338773   -7.2831164   0.75834572  0.001091459 0.0010428093          665 
   58000   0.56190619   -7.2954007   0.75229837 0.0010808885 0.0010419536          650 
   58100   0.53196093   -7.2990755   0.75152782 0.0010779229 0.0010410194          643 
   58200   0.55620539   -7.2938746   0.75211387 0.0010769099 0.0010400386          628 
   58300   0.55575956   -7.2479357   0.75707777  0.001082158 0.0010391324          644 
   58400   0.51513083   -7.2842744   0.76142306 0.0010865055 0.0010382866          656 
   58500   0.55231143   -7.2670747   0.76191993  0.001085356 0.0010374968          663 
   58600   0.57022802    -7.343824    0.7448337 0.0010592061  0.001036539          653 
   58700   0.53868931   -7.3337025   0.74873905 0.0010629458 0.0010354162          681 
   58800   0.56458172   -7.3044403    0.7426326 0.0010524838 0.0010342924          686 
   58900   0.54132097   -7.2807726   0.74043888 0.0010475932 0.0010331104          663 
   59000   0.55691892   -7.3095635   0.73291656 0.0010351929 0.0010318216          668 
   59100   0.51828926   -7.3294306   0.73180488 0.0010318738 0.0010304586          653 
   59200   0.55038499   -7.2731642   0.74978581 0.0010554417 0.0010292567          659 
   59300   0.54840792   -7.2849555   0.75574448 0.0010620355 0.0010282197          669 
   59400   0.53891649   -7.3103007   0.75015042 0.0010523996 0.0010271538          672 
   59500   0.53831147   -7.3039765   0.76204473 0.0010672895 0.0010261403          656 
   59600   0.55830129   -7.3033992   0.75770065 0.0010594248 0.0010252275          641 
   59700   0.56346814   -7.2958304   0.75833204 0.0010585316 0.0010242035          625 
   59800   0.55660081   -7.3198237   0.76308269 0.0010633817 0.0010232969          646 
   59900   0.54207048   -7.3030731   0.75764916 0.0010540472 0.0010223039          671 
   60000    0.5443253   -7.2963776    0.7682051 0.0010669515    0.0010214          665 
   60100   0.53228003   -7.2970237   0.77224729  0.001070781 0.0010205683          646 
   60200   0.53304002   -7.2969714   0.76856495  0.001063905 0.0010197207          635 
   60300   0.56204357   -7.2957429   0.77070976 0.0010651047 0.0010188404          652 
   60400   0.55084782   -7.2850763   0.75591543 0.0010429297  0.001017904          688 
   60500   0.52089921   -7.3469641   0.75568245 0.0010408849 0.0010167679          668 
   60600   0.56669952    -7.285933   0.75125171 0.0010330744 0.0010156595          674 
   60700   0.53783016   -7.2873859   0.75741378 0.0010398322 0.0010144999          636 
   60800   0.54848898   -7.2669818   0.76274449 0.0010454283 0.0010134802          677 
   60900   0.54611796   -7.2973632   0.75392243 0.0010316399 0.0010124138          675 
   61000   0.55928868   -7.3107101   0.75359835 0.0010295059 0.0010112151          690 
   61100   0.55796473   -7.3093439   0.74797461 0.0010201509 0.0010100243          656 
   61200   0.55021628    -7.277189   0.75526829 0.0010284154 0.0010088151          641 
   61300   0.52544049   -7.3081662   0.74497794 0.0010127487  0.001007569          652 
   61400   0.55836371   -7.3165304   0.74572291 0.0010121103 0.0010061833          669 
   61500   0.55067562    -7.291242    0.7495202   0.00101561 0.0010049282          659 
   61600   0.59274862   -7.3501974   0.74793374 0.0010118151 0.0010036825          659 
   61700   0.55506493   -7.3164842    0.7466623  0.001008458 0.0010023868          633 
   61800   0.57358402   -7.3116027   0.75983487 0.0010245885 0.0010011927          646 
   61900   0.55328233   -7.2661576   0.76226763 0.0010262084 0.0010000939          657 
   62000   0.53828361   -7.3258129   0.75147256 0.0010100438 0.00099892486          682 
   62100   0.56708516   -7.3106506   0.74334845 0.00099751535 0.0009975828          675 
   62200   0.56308738   -7.2869747    0.7440202 0.00099681162 0.00099622662          659 
   62300    0.5538206   -7.3286654   0.75174169   0.00100554 0.00099489998          673 
   62400   0.55865816   -7.3132997   0.75305355 0.0010056805 0.0009936701          658 
   62500    0.5610407   -7.3080651   0.76757121 0.0010234283 0.00099253078          667 
   62600    0.5473819   -7.2901484    0.7635092  0.001016386 0.00099145648          666 
   62700   0.52708646   -7.3404257   0.75740997 0.0010066586 0.00099025882          672 
   62800   0.54441735   -7.2879112   0.76007967 0.0010085983 0.00098908628          677 
   62900   0.54340746   -7.2737824   0.76462293 0.0010130139 0.00098793927          657 
   63000   0.52228103   -7.3269942   0.76809393 0.0010159973 0.0009869017          666 
   63100   0.55301539   -7.2681119   0.74864028 0.00098869556 0.00098566333          643 
   63200   0.56599009    -7.315539   0.74606992 0.00098374198 0.00098431994          656 
   63300   0.53238077   -7.2981473   0.73749097 0.00097089384 0.00098286038          676 
   63400   0.55460565   -7.3105701   0.74008527 0.00097277243 0.00098136841          692 
   63500   0.55411129   -7.2629947    0.7514499 0.00098615471 0.00097996938          694 
   63600   0.53980818   -7.2845195   0.75322425 0.00098692904 0.00097870991          669 
   63700   0.54142152   -7.3173762   0.74896192 0.00097980366 0.00097736762          672 
   63800   0.53705792   -7.2868528   0.74349348 0.00097112523 0.00097596172          659 
   63900   0.50905894   -7.2499685   0.75496893 0.00098457084 0.0009746284          648 
   64000   0.52928263   -7.2661656   0.75232591 0.00097959102 0.00097330093          666 
   64100   0.53530198   -7.3202493   0.74979365 0.00097477073 0.00097195106          646 
   64200   0.56232752   -7.2684848   0.74244373  0.000963712 0.00097051946          662 
   64300   0.56904791   -7.2943762   0.75389968 0.00097706023 0.00096914457          652 
   64400   0.54345023   -7.2912217   0.74692637 0.00096651962 0.00096781099          650 
   64500   0.56058113   -7.3044207   0.75144141 0.00097085453 0.00096643215          642 
   64600   0.55205203   -7.2869273   0.75340865 0.00097188938 0.00096510179          655 
   64700   0.53887138   -7.2926176    0.7477203 0.00096306066 0.00096373449          652 
   64800   0.58012841   -7.2809164   0.74002112 0.00095167324 0.00096226658          683 
   64900    0.5480451   -7.2995721   0.73169849 0.0009395204 0.0009606994          679 
   65000   0.53837532   -7.3141826   0.74436159 0.00095430973 0.00095915146          663 
   65100   0.56891838   -7.2834685   0.75264858 0.00096345183 0.00095780086          657 
   65200   0.55860697   -7.3349633   0.75446979 0.00096430187 0.00095646734          651 
   65300   0.53305406   -7.3158951    0.7539321 0.00096213896 0.00095515941          659 
   65400   0.51755484   -7.2920572   0.76223166 0.00097124319 0.00095385712          641 
   65500   0.56434295   -7.2785686    0.7676207 0.00097661665 0.00095268776          634 
   65600   0.54327239   -7.3385593     0.767796 0.0009753506 0.0009515411          667 
   65700   0.53900396   -7.2984155   0.76453084 0.00096972455 0.0009503658          666 
   65800   0.56018692   -7.2961955   0.76219354 0.0009652907 0.00094914559          657 
   65900   0.54164845   -7.2765017   0.75605756 0.0009560667 0.00094785381          672 
   66000   0.53036297   -7.3310262   0.75116153 0.00094843627 0.0009465163          655 
   66100   0.56665643   -7.3127144   0.74999194 0.00094552689 0.00094510903          666 
   66200   0.55324731   -7.2743676   0.76271382 0.00096011305 0.00094381154          678 
   66300   0.54408241   -7.3120114   0.76538532 0.00096202277 0.00094261941          694 
   66400   0.54157425    -7.296976   0.76443452 0.00095938066 0.00094140297          686 
   66500   0.53627589    -7.280832   0.76998221 0.00096488998 0.00094023115          701 
   66600   0.52818946   -7.2787593   0.76857205 0.00096167673 0.00093908095          689 
   66700   0.53526294   -7.3006564   0.76896317 0.00096072359 0.00093789945          685 
   66800   0.56141075   -7.2935035   0.77227761 0.00096342016 0.00093675452          664 
   66900   0.55427279   -7.2922099   0.76784023 0.0009564527 0.00093559319          685 
   67000   0.55325849   -7.2958764   0.77401543 0.00096270575 0.00093444531          670 
   67100   0.54903721   -7.2826513    0.7680846 0.00095390536 0.00093330114          640 
   67200   0.55371459   -7.2993043   0.76099313 0.00094369187 0.0009320444          681 
   67300   0.53378024   -7.3139735   0.76365457 0.00094558514 0.00093076909          688 
   67400   0.54595586   -7.3161061   0.77517725 0.00095842884 0.00092958992          688 
   67500    0.5276421   -7.2386645   0.77068449 0.00095146233 0.00092846021          659 
   67600   0.53638702   -7.2975544   0.76693993 0.00094543876 0.00092727893          674 
   67700   0.58080581   -7.2616234   0.75640205 0.00093107096 0.00092598381          687 
   67800   0.59115289   -7.2937325   0.75323438 0.0009258043 0.00092462818          703 
   67900   0.56210711     -7.32512   0.75812247 0.00093043994 0.00092324344          686 
   68000    0.5687047   -7.3052361   0.76601053 0.00093873839 0.0009219871          686 
   68100   0.56896818   -7.2883698   0.76196574 0.00093241035 0.00092073456          658 
   68200   0.55227492   -7.3228956   0.76185075 0.00093090267 0.00091943475          685 
   68300   0.53698941   -7.3548073   0.75895222 0.0009260032 0.00091812522          670 
   68400   0.54229077    -7.324734   0.76150851 0.00092776377 0.00091679963          661 
   68500   0.55033743   -7.2997078   0.76889706 0.00093539788 0.0009155726          665 
   68600   0.55767011   -7.2774153   0.75915125 0.00092219539 0.00091426807          695 
   68700   0.55125121   -7.2931787   0.77144092 0.00093576045 0.00091300616          703 
   68800   0.54163084   -7.3244591   0.77528054 0.00093905104 0.00091189338          680 
   68900   0.55860785   -7.3385814   0.77641212 0.00093905674 0.00091074979          697 
   69000   0.54135337   -7.2673272   0.78750317 0.00095109078 0.00090968868          669 
   69100   0.56541511   -7.3132032    0.7852921 0.00094704787 0.00090871274          672 
   69200   0.53847282   -7.2896156   0.78479023 0.00094507493 0.00090766598          659 
   69300   0.55332943   -7.2911511   0.77880007 0.00093650802 0.00090659448          683 
   69400   0.53108153   -7.2470811   0.78258006 0.00093969747 0.00090551245          665 
   69500   0.53634072   -7.3326903    0.7774108 0.00093214724 0.00090438539          657 
   69600   0.53142573   -7.2815763    0.7862535 0.00094139547 0.00090330159          676 
   69700   0.58729092   -7.3141078    0.7835519 0.0009368148 0.00090226529          673 
   69800   0.54765775   -7.3014067   0.79171984 0.00094522425 0.00090124984          651 
   69900   0.57443861   -7.2998986   0.81451757 0.00097105099 0.00090042306          659 
   70000   0.54990077   -7.2566485   0.82145656 0.00097792447 0.00089974457          671 
   70100   0.56281192   -7.3195938   0.83045279 0.00098722395 0.00089917207          673 
   70200   0.54570448   -7.3196439   0.82913585 0.00098425433 0.00089860519          667 
   70300   0.55102731    -7.310357   0.82515755 0.00097813839 0.00089796897          655 
   70400   0.55183088   -7.2902486   0.82446411 0.00097592815 0.00089735796          665 
   70500   0.57509794   -7.3080764   0.82496997 0.0009751418 0.00089670332          674 
   70600   0.54930688    -7.334383   0.82866838 0.00097812603 0.00089613049          669 
   70700   0.60046254   -7.3080683   0.82823832 0.00097623563 0.00089551951          675 
   70800   0.55370483   -7.3110165   0.83487378 0.00098266687 0.0008949714          688 
   70900   0.51764959   -7.3175468   0.82726211 0.0009723344 0.00089439794          700 
   71000    0.5456124   -7.3400655   0.82012761 0.00096259109 0.00089369232          691 
   71100   0.56109662   -7.3426414   0.83266154 0.00097592773 0.00089301941          677 
   71200   0.58206549   -7.3276309   0.83929883 0.0009823254 0.0008924717          713 
   71300   0.54953992   -7.3653575   0.83077853 0.00097098939 0.00089189523          685 
   71400   0.55384411   -7.3257559   0.82875546 0.00096726827 0.00089126085          694 
   71500   0.54597966    -7.307539   0.83279834 0.00097062743 0.00089060204          706 
   71600   0.52853438   -7.3444618    0.8325675 0.00096900313 0.00088998712          684 
   71700   0.55100005   -7.3286429   0.83704311 0.00097285345 0.00088938858          687 
   71800   0.56142265   -7.3470431   0.84564845 0.00098148613 0.00088883696          706 
   71900   0.55949127   -7.2716336   0.83793999 0.00097118681 0.00088830894          670 
   72000   0.54263875   -7.3257226   0.83507147 0.0009665179 0.00088769998          674 
   72100    0.5564905   -7.3129799   0.83852322 0.00096916691 0.00088710386          692 
   72200   0.51859871    -7.325589   0.84323439 0.00097326222 0.00088650873          703 
   72300   0.54944127   -7.3304256   0.85174027 0.00098171999 0.00088601377          718 
   72400   0.55371645   -7.3328057    0.8615863 0.00099169693 0.00088560805          705 
   72500   0.55434878   -7.3205139   0.86640195 0.0009958643 0.00088526715          698 
   72600    0.5260216   -7.3202609   0.85880449 0.00098577191 0.00088490334          692 
   72700   0.55477615   -7.3486019   0.85951456 0.00098522989 0.00088450402          682 
   72800   0.54578781    -7.292779   0.85412771 0.00097771029 0.00088404528          713 
   72900   0.51605238   -7.3346141   0.85890028 0.00098182473 0.00088359398          700 
   73000   0.55150567    -7.358375   0.85696932 0.00097827547 0.0008831241          722 
   73100   0.55119941   -7.3442951   0.86265533 0.0009834192 0.00088270968          738 
   73200   0.54915945   -7.4096203   0.87348162 0.00099440074 0.0008823647          762 
   73300   0.56315827   -7.4020074   0.89127059 0.0010132681 0.00088216461          765 
   73400   0.55377098   -7.4064371   0.90106655 0.0010230092 0.00088209495          779 
   73500   0.53634735   -7.4226318   0.90115654 0.0010217194 0.00088203205          789 
   73600   0.55048159   -7.4369352   0.91708033 0.0010383609 0.00088205795          777 
   73700   0.56606397   -7.4112712   0.92317693 0.0010438455 0.00088221356          786 
   73800    0.5619007   -7.4595243   0.93349082 0.0010540772 0.00088240482          787 
   73900   0.53725371   -7.4177934   0.93498389 0.0010543346 0.00088269507          784 
   74000   0.52897317   -7.4335064   0.93935457 0.0010578317 0.00088295698          789 
   74100   0.54689801   -7.4501608   0.94113742 0.0010584091 0.00088322794          805 
   74200    0.5569169   -7.4913499   0.95106105 0.0010681279 0.00088355878          808 
   74300   0.53639671   -7.5159712   0.95806411 0.0010745448 0.00088397394          809 
   74400   0.55452292   -7.4763004   0.97012989  0.001086615 0.00088444617          790 
   74500   0.54476707   -7.4564712   0.97332314 0.0010887283 0.00088501932          798 
   74600   0.53973533   -7.4874658   0.96659753 0.0010797559 0.0008855331          799 
   74700   0.56741138   -7.5161085   0.96660125 0.0010783146 0.00088599697          814 
   74800   0.54665563   -7.4806964   0.97163467 0.0010824807 0.00088647326          805 
   74900   0.54888706    -7.517678   0.96295882 0.0010713827 0.00088692019          801 
   75000   0.57623378   -7.5336822   0.95942872 0.0010660319 0.00088727013          803 
   75100   0.55385307   -7.5227506   0.96300254  0.001068578 0.00088765743          814 
   75200   0.54539827   -7.5070583   0.95891779 0.0010626305 0.00088799331          807 
   75300   0.55337247   -7.4959477   0.95860952 0.0010608782 0.00088830813          813 
   75400   0.55889481   -7.4882209   0.95720736 0.0010579215 0.00088858714          821 
   75500   0.53583202   -7.5465981   0.95588911 0.0010550652 0.00088885758          822 
   75600     0.562773    -7.564594   0.94488154 0.0010415361 0.00088902369          832 
   75700   0.53574301   -7.5499162   0.94569033 0.0010410505 0.00088913569          826 
   75800   0.52406307   -7.5794186   0.95884179 0.0010541356 0.00088931953          821 
   75900   0.55491339   -7.5613009   0.97089524 0.0010659807 0.00088960289          820 
   76000   0.54357908   -7.5213293    0.9834806 0.0010783778 0.00089002066          830 
   76100    0.5425541   -7.5053178   0.97788059 0.0010708285 0.00089042898          828 
   76200   0.54477149   -7.5243704   0.97098812 0.0010618855 0.00089077529          827 
   76300    0.5727253   -7.5425226   0.97668043 0.0010667108 0.0008910819          833 
   76400   0.56050624   -7.4956533   0.97908233 0.0010679345 0.00089144682          832 
   76500   0.53714068   -7.5504312   0.98070554 0.0010683067 0.00089180373          828 
   76600   0.54254793   -7.5065483   0.97854718 0.0010645639 0.0008921446          827 
   76700   0.58223616   -7.5653245   0.97380895  0.001058028 0.00089245745          837 
   76800   0.56263614   -7.5996271   0.98358681   0.00106726 0.00089273644          835 
   76900   0.56471118   -7.4941582   0.97979573 0.0010617639 0.00089306867          829 
   77000   0.57022174   -7.5483411   0.99235949 0.0010739821 0.00089341926          833 
   77100   0.55622494   -7.5561666   0.99376403 0.0010741072 0.00089384767          834 
   77200   0.52102814   -7.5560691   0.98232881 0.0010603722 0.00089417472          833 
   77300    0.5568197   -7.5275373    0.9924918 0.0010699567 0.00089450614          823 
   77400   0.56184535   -7.5433612     0.985678 0.0010612381 0.00089483668          836 
   77500   0.57246773   -7.5475448   0.98070833 0.0010545251 0.00089509435          823 
   77600   0.55782298   -7.5201068   0.97438185 0.0010463723 0.00089527791          830 
   77700   0.54418657    -7.563892   0.97641007 0.0010472008 0.00089546379          831 
[...]
   83200   0.54769788   -7.5310383    1.0089653 0.0010105822 0.00089794658          841 
   83300   0.52637643    -7.594212    1.0043912 0.0010047931 0.00089783787          839 
   83400   0.54769132   -7.5460259    1.0064288 0.0010056243 0.00089771728          838 
   83500    0.5521146    -7.567259    1.0013995 0.00099940065 0.00089759369          833 
   83600   0.55534103    -7.556864   0.99836444 0.00099517986 0.00089740969          830 
   83700   0.55978304   -7.5839157   0.99971919 0.00099533969 0.00089721681          841 
   83800   0.54850114   -7.6000278    1.0050295 0.00099943265 0.00089704907          840 
   83900   0.55536639   -7.5514024     1.010167 0.0010033442 0.00089690428          841 
   84000   0.57019021   -7.5798513    1.0090636 0.0010010552 0.0008967716          844 
   84100   0.53375996   -7.5663773    1.0263239 0.0010169677 0.00089670173          840 
   84200   0.54647424   -7.5231118    1.0286587 0.0010180708 0.00089669918          838 
   84300   0.52464034   -7.5354227    1.0164186 0.0010047633 0.00089663841          842 
   84400   0.52978289   -7.6057566     1.011351 0.00099856927 0.00089648581          838 
   84500   0.56524787   -7.5752445    1.0121718 0.00099819708 0.00089634581          838 
   84600   0.54066544   -7.5711795    1.0117274 0.00099657943 0.0008961919          844 
   84700   0.55775487    -7.564722    1.0163964 0.00099999646 0.00089605694          853 
   84800   0.54391539   -7.6019542    1.0151202 0.00099756312 0.00089590934          854 
   84900   0.55608176    -7.580375    1.0190829 0.0010002777 0.00089577331          855 
   85000   0.54728172   -7.5701793    1.0280279 0.0010078705 0.00089566994          857 
   85100   0.54123371   -7.6185757    1.0249363 0.0010036587 0.00089559392          855 
   85200   0.52507641   -7.6181183    1.0142892 0.00099206689 0.00089545074          852 
   85300    0.5517941   -7.5887282    1.0196905 0.00099618065 0.00089525085          858 
   85400   0.52795047   -7.6001338    1.0302493 0.0010053174 0.00089515311          856 
   85500   0.54275131   -7.5891164    1.0315004  0.001005361 0.00089507155          856 
   85600    0.5531166   -7.5747982    1.0442239 0.0010165731 0.00089504413          856 
   85700   0.53953147   -7.5756906    1.0388957 0.0010102059 0.00089503613          859 
   85800   0.54604417   -7.5987214     1.043365 0.0010133692 0.00089503122          856 
   85900   0.54002448   -7.6368855    1.0334526 0.0010025733 0.00089496514          861 
   86000     0.552116   -7.5927552     1.031587 0.00099959983 0.0008948427          860 
   86100   0.56694873   -7.6323247    1.0418646 0.0010083862 0.00089478396          862 
   86200    0.5633613   -7.6066182    1.0367541 0.0010022758 0.00089469949          862 
   86300   0.55186802   -7.6136274    1.0430325  0.001007177 0.00089463326          862 
   86400   0.54279538    -7.601627    1.0460644 0.0010089356 0.00089461249          858 
   86500   0.55311946    -7.595949    1.0495286 0.0010111065 0.0008945697          858 
   86600   0.54317421   -7.6046866    1.0459356 0.0010064815 0.00089453005          859 
   86700   0.53732867   -7.6432109    1.0451403 0.0010045562 0.00089447244          860 
   86800   0.56195759    -7.589697    1.0424661 0.0010008315 0.00089439434          861 
   86900   0.55012015   -7.5770488    1.0560477 0.0010127039 0.00089433734          863 
   87000   0.55084924    -7.624379    1.0561103 0.0010115999 0.00089432737          861 
   87100   0.53746241   -7.6011844     1.061199 0.0010153071 0.00089434318          860 
   87200    0.5742292   -7.6206868    1.0619979 0.0010149062 0.00089437308          858 
   87300   0.54094526   -7.5643005    1.0629904 0.0010146911 0.00089436972          855 
   87400   0.54355337     -7.66021    1.0535843 0.0010045617 0.00089436166          860 
   87500   0.52278619   -7.5984421    1.0538044 0.0010036233 0.00089429138          861 
   87600   0.54488933   -7.6012323    1.0565244  0.001005065 0.00089423657          863 
   87700   0.55748056   -7.6049661    1.0490083 0.0009967772 0.0008941568          863 
   87800   0.55773074   -7.6384676    1.0431006 0.0009900347 0.00089401604          861 
   87900   0.56025106   -7.6214647    1.0458477 0.0009915128 0.00089386045          860 
   88000    0.5436967   -7.6230295    1.0534988 0.00099763141 0.00089372189          857 
   88100   0.53688175   -7.6145057    1.0561777 0.00099903303 0.00089363225          863 
   88200   0.52451116   -7.6697353    1.0623121 0.0010036962 0.0008935674          862 
   88300   0.54645183   -7.6241717    1.0683406  0.001008249 0.00089354016          864 
   88400   0.56440317   -7.5982687    1.0589977 0.00099830099 0.00089347632          863 
   88500    0.5341733   -7.6356041    1.0424311 0.00098157357 0.00089333251          863 
   88600   0.55673548   -7.6542911    1.0460276 0.00098384841 0.00089312612          862 
   88700   0.56347733   -7.6066522    1.0415845 0.00097856493 0.00089291025          862 
   88800   0.54673635   -7.6555818    1.0571332 0.00099205445 0.00089273055          860 
   88900   0.55042571   -7.5775534    1.0566806 0.00099051427 0.00089260752          863 
   89000   0.54199382   -7.6138988     1.054001 0.00098689233 0.00089242977          864 
   89100   0.53028148   -7.6227473    1.0485446 0.00098068142 0.00089224002          862 
   89200   0.52242489   -7.5871348    1.0558055 0.00098636535 0.00089206473          864 
   89300   0.55534082   -7.6089539    1.0559346 0.00098538133 0.00089189286          863 
   89400   0.56146713   -7.6403479    1.0533073 0.00098183003  0.000891714          863 
   89500   0.54217673    -7.626559    1.0581816 0.00098527152 0.00089154358          861 
   89600    0.5686546   -7.6194275    1.0533018 0.0009796334 0.00089137559          861 
   89700   0.54432843   -7.6283202    1.0479241 0.00097354524 0.0008911468          863 
   89800   0.54529542   -7.6385759     1.056123 0.00098006956 0.00089091286          860 
   89900   0.57274275   -7.6060349    1.0613376 0.00098381311 0.00089075112          864 
   90000   0.56266744   -7.6415486    1.0516967 0.00097379328 0.00089053497          864 
   90100   0.55293298   -7.6426779    1.0492076 0.00097041032 0.00089028282          862 
   90200   0.57824885    -7.613239     1.037719 0.00095872046 0.00088996432          864 
   90300   0.57850912   -7.6139656    1.0440362 0.00096348852 0.00088965141          861 
   90400   0.55831518   -7.6500148    1.0523366 0.00097007432 0.00088937555          863 
   90500   0.53149059   -7.6142275    1.0598964 0.00097596356 0.00088915652          863 
   90600   0.54380644   -7.6495494    1.0627405 0.0009775023 0.00088897059          862 
   90700   0.56275281   -7.6122952    1.0500055 0.00096472389 0.00088870929          862 
   90800    0.5338367   -7.6157978    1.0613239 0.0009740491 0.00088845812          863 
   90900   0.54562202   -7.6520187    1.0524702 0.00096486083 0.0008882252          862 
   91000   0.55800162   -7.5589224    1.0427554 0.00095490421 0.00088789142          860 
   91100   0.55060466   -7.6526939    1.0460099 0.00095683305 0.00088756302          861 
   91200   0.54331918   -7.5967337    1.0410163 0.00095122101 0.0008872043          862 
   91300   0.54063235   -7.6659026    1.0367735 0.00094630659 0.00088681852          862 
   91400    0.5581277   -7.6244037    1.0320382 0.00094095383 0.00088638289          864 
   91500   0.56021717   -7.6193771    1.0276994 0.00093597394 0.00088593681          863 
   91600    0.5377489   -7.6374735     1.039378 0.00094557682 0.00088548702          862 
   91700     0.570304   -7.5891173    1.0481255  0.000952495 0.00088513126          863 
   91800   0.55269856   -7.6215929    1.0542688 0.00095703415 0.00088480602          864 
   91900   0.55708414   -7.6456435    1.0448915 0.00094748955 0.00088446741          864 
   92000   0.52544789   -7.6443798    1.0455351 0.00094704262 0.00088407978          864 
   92100   0.55570433   -7.6430134    1.0509763 0.00095093764 0.00088371116          864 
   92200   0.56960533   -7.6106532     1.048125 0.00094732921 0.00088335458          861 
   92300   0.52739982   -7.6231396    1.0405029 0.00093942119 0.00088296331          861 
   92400   0.56307513   -7.6419033    1.0587493 0.00095486048 0.00088259415          862 
   92500   0.58665991   -7.5557238    1.0541917 0.00094972227 0.00088226197          864 
   92600    0.5711991   -7.6199231    1.0688734 0.00096190908 0.00088199422          863 
   92700   0.53939721   -7.6069925    1.0658538 0.00095815696 0.00088173679          861 
   92800   0.54314639     -7.62329    1.0581569 0.00095021275 0.00088143628          862 
   92900   0.54189849   -7.6510762    1.0605981 0.00095137968 0.00088110001          863 
   93000   0.53577836   -7.5912566    1.0631987 0.00095268698 0.00088081631          862 
   93100   0.54142242   -7.6218447    1.0511932 0.00094091766 0.0008804529          861 
   93200   0.54399344   -7.6019355     1.049759 0.00093862568 0.00088005789          862 
   93300   0.55103522   -7.5819417    1.0504675 0.00093825251 0.00087965386          864 
   93400   0.54619662   -7.6249593    1.0563978 0.00094253909 0.00087927091          864 
   93500   0.52129668   -7.5968539    1.0598904 0.00094464382 0.00087893222          862 
   93600    0.5515322   -7.6356509    1.0544198 0.00093876405 0.00087855008          861 
   93700   0.55694088   -7.6138811    1.0504511 0.00093423257 0.00087816435          863 
   93800     0.559415   -7.6482444    1.0455942 0.00092892167 0.00087774466          864 
   93900   0.56230315   -7.5945686    1.0438494 0.00092638387 0.00087727784          864 
   94000   0.56355417   -7.6356156    1.0481605 0.00092922026 0.00087683029          862 
   94100   0.54887799   -7.6414074     1.031968 0.00091389299 0.00087633622          864 
   94200   0.57442082   -7.6172849    1.0438053 0.00092339462 0.00087580509          863 
   94300    0.5551587   -7.6238326    1.0536688 0.00093113182 0.00087537657          864 
   94400   0.55171689   -7.6396869    1.0586234 0.00093451924 0.00087497833          859 
   94500    0.5620003   -7.5952649      1.05562 0.00093088186 0.00087456909          861 
   94600   0.56672255   -7.5933164    1.0536821 0.00092819068 0.00087415906          859 
   94700   0.55098167   -7.6420252    1.0506315 0.00092452614 0.0008737449          861 
   94800   0.55251343    -7.651397    1.0514133 0.00092423814 0.00087327691          864 
   94900   0.55757185   -7.6013783    1.0529902 0.00092464895 0.00087282244          862 
   95000   0.57279229   -7.6187167    1.0607846 0.00093051282 0.00087241396          861 
   95100   0.55389926   -7.6339816    1.0551665 0.0009246114 0.00087199244          864 
   95200   0.57117598    -7.656352    1.0572037 0.00092542336 0.00087155529          863 
   95300   0.55544782   -7.5826082    1.0530142 0.00092078893 0.00087112379          863 
   95400   0.58894683   -7.5889259    1.0459868 0.0009136852 0.00087064813          864 
   95500   0.55162112   -7.6242992    1.0509762 0.00091708224 0.00087013433          864 
   95600   0.55391165   -7.6389486    1.0480413 0.00091356459 0.00086967307          861 
   95700    0.5618478   -7.5866684    1.0504262 0.00091468672 0.00086919276          862 
   95800     0.571474   -7.6382236    1.0537775 0.00091664711 0.00086869922          864 
   95900   0.54697434   -7.6064382    1.0515488 0.00091375462 0.00086823696          863 
   96000   0.58168175   -7.6450886    1.0495773 0.00091109139 0.00086775002          863 
   96100   0.52363208   -7.5756294    1.0370957 0.00089931986 0.00086720279          861 
   96200   0.55520081   -7.6435816    1.0434312 0.00090387314 0.00086665112          862 
   96300    0.5587472   -7.6369511    1.0273601 0.00088902739 0.00086606416          864 
   96400   0.54056761    -7.650071     1.041708 0.00090050827 0.00086546124          863 
   96500   0.55248749    -7.598235    1.0502152 0.00090692159 0.0008649359          863 
   96600   0.55614828   -7.6281505    1.0630403 0.00091704646 0.0008644721          863 
   96700   0.55046278   -7.6377391    1.0619618 0.00091516875 0.00086403916          860 
   96800   0.55545321   -7.6457816    1.0594297 0.00091204343 0.0008635738          864 
   96900   0.56677285   -7.6172143    1.0537843 0.00090624724 0.00086311173          861 
   97000   0.56038094   -7.6297134    1.0530233 0.0009046592 0.0008626272          863 
   97100   0.55245712   -7.6315604    1.0439425 0.00089593414 0.00086206247          863 
   97200   0.55056383   -7.6510317     1.043389 0.00089453787 0.00086150811          863 
   97300   0.54322705    -7.594588    1.0478765 0.00089746184 0.00086095643          863 
   97400   0.54371186   -7.6642815    1.0345687 0.00088515462 0.00086037914          862 
   97500   0.53504682   -7.6167845    1.0517625 0.00089894234 0.00085980399          864 
   97600   0.55695869   -7.6275107    1.0419718 0.00088966169 0.00085925412          863 
   97700   0.53691969   -7.6119393    1.0477491 0.00089367882 0.00085868337          864 
   97800   0.55255624   -7.6317835    1.0413352 0.00088729989 0.00085810895          862 
   97900   0.57260424      -7.6733    1.0443551 0.00088896417  0.000857519          862 
   98000   0.58109725   -7.6364026    1.0550341 0.00089713782 0.00085697272          860 
   98100   0.56068177   -7.6278574    1.0524874 0.00089405995 0.00085645695          863 
   98200   0.52012738   -7.6174099    1.0462946 0.00088789425 0.00085589809          863 
   98300    0.5537473    -7.650184    1.0368376 0.00087897386 0.00085528587          862 
   98400   0.54264572   -7.6079355    1.0430492 0.00088334115 0.00085468231          862 
   98500   0.55813197   -7.6154744     1.032399  0.000873434 0.0008540489          864 
   98600   0.53037245   -7.6368329    1.0420384 0.00088069506 0.00085342338          864 
   98700     0.529744   -7.6005748    1.0547538 0.00089053851 0.00085285768          861 
   98800    0.5532604   -7.5919365    1.0484483 0.00088431876 0.00085230577          860 
   98900   0.53689859   -7.6663549    1.0517931 0.00088624292 0.00085175659          860 
   99000   0.53673339   -7.6251609    1.0560373 0.00088892029 0.00085120457          861 
   99100   0.54486376   -7.6048383     1.057454 0.00088921459 0.00085068034          860 
   99200   0.54483382   -7.5919857    1.0518671 0.00088362489 0.00085013917          862 
   99300   0.54404589   -7.6290081    1.0458921 0.00087772081 0.0008495519          863 
   99400   0.55429238   -7.6165287    1.0368805 0.00086928281 0.00084893123          863 
   99500   0.55326041   -7.6267255    1.0454628 0.00087559694 0.00084831636          863 
   99600   0.54359083   -7.6419986    1.0450156 0.0008743437 0.00084769197          861 
   99700   0.55703245   -7.6011536    1.0506735 0.00087819581 0.00084710654          863 
   99800   0.57210012   -7.6277111    1.0569853 0.00088258624 0.00084656102          863 
   99900   0.54517542    -7.634651    1.0517389 0.00087732645 0.00084600171          863 
  100000   0.53747242   -7.6016381    1.0592101 0.00088267507 0.00084544333          863 
  100100   0.55414764   -7.5935656    1.0565922 0.0008796139 0.00084490251          863 
  100200   0.53751398    -7.605941    1.0457114 0.00086968678 0.00084432704          863 
  100300   0.52558637   -7.6322201    1.0411018 0.00086498986 0.00084367984          861 
  100400   0.54163539   -7.5902047    1.0468105 0.00086886663 0.00084305596          862 
  100500    0.5137769    -7.624987    1.0515277 0.00087191354 0.00084246768          861 
  100600    0.5479244    -7.587521    1.0381226 0.00085994247 0.00084182739          862 
  100700   0.55969537   -7.6192528    1.0452204 0.00086496229 0.00084118503          864 
  100800   0.54690627   -7.6316059    1.0448787 0.00086382164 0.00084057906          862 
  100900   0.55386142   -7.6326714     1.055964 0.00087212091 0.00083997005          862 
  101000   0.56189662   -7.6343333    1.0502248 0.00086652211 0.00083939946          859 
  101100   0.56311027   -7.6147618    1.0483725 0.00086413825 0.00083876692          863 
  101200   0.54344739   -7.6435043    1.0485166 0.00086340296 0.00083815921          864 
  101300   0.56616524   -7.6499587    1.0512742 0.00086481921 0.00083754635          863 
  101400   0.55087074   -7.6296436    1.0438332 0.00085785105 0.00083692617          862 
  101500   0.57619047   -7.5940819    1.0375987 0.0008518873 0.00083627217          863 
  101600    0.5403063   -7.6001736    1.0416804 0.00085439665 0.0008356037          862 
  101700    0.5197837    -7.618279    1.0474018 0.00085824464 0.00083495345          862 
  101800   0.53702039   -7.6025197    1.0619872 0.00086934122 0.00083436683          862 
  101900   0.57966432   -7.6691573    1.0561319 0.00086369962 0.00083380568          863 
  102000   0.54922499   -7.6726771    1.0461794 0.00085472174 0.00083320706          864 
  102100   0.54923008   -7.6583242    1.0566152 0.00086240221 0.00083258984          862 
  102200   0.58014128   -7.6201066    1.0474491 0.00085408438 0.00083198192          861 
  102300   0.54910121   -7.6448827    1.0417415 0.00084860011 0.00083133492          864 
  102400   0.55104969   -7.6282085    1.0472467 0.00085225152 0.00083066515          863 
  102500   0.55717196   -7.6274458    1.0502131 0.00085383181 0.00083003727          860 
  102600   0.54181669   -7.6236661    1.0423518 0.00084661449 0.00082938693          861 
  102700   0.53943928   -7.6315212    1.0481834 0.00085052208 0.00082872442          860 
  102800   0.55894649   -7.6644621     1.056095 0.00085610816 0.00082809907          863 
  102900    0.5559479   -7.5785834    1.0715061 0.00086775683 0.00082755205          863 
  103000   0.57936174   -7.6320601     1.067331 0.00086353637 0.00082701938          864 
  103100   0.53886308    -7.589755    1.0592735 0.00085618612 0.00082645674          863 
  103200   0.56073168    -7.654708    1.0557377 0.00085250137 0.00082584589          861 
  103300   0.57483598   -7.6067243    1.0476492 0.00084515102 0.00082522571          862 
  103400   0.55443359   -7.6449023    1.0365379 0.00083537871 0.00082453825          862 
  103500   0.53050817   -7.6241118    1.0474375 0.0008433474 0.00082385865          862 
  103600   0.57084625   -7.6205756    1.0513617 0.00084568992  0.000823228          863 
  103700   0.55366889   -7.5990383    1.0518289 0.00084524987 0.00082259065          861 
  103800    0.5579654   -7.6732389    1.0536694 0.00084591313 0.00082196205          862 
  103900   0.54970792   -7.6136714     1.053252 0.00084476416 0.00082133504          859 
  104000   0.56756918   -7.6209675    1.0474527 0.00083930502 0.00082070612          864 
Loop time of 198.842 on 12 procs for 100000 steps with 864 atoms

Performance: 86903.147 tau/day, 502.912 timesteps/s
99.4% CPU use with 12 MPI tasks x no OpenMP threads

MPI task timing breakdown:
Section |  min time  |  avg time  |  max time  |%varavg| %total
---------------------------------------------------------------
Pair    | 10.104     | 11.021     | 11.593     |  15.4 |  5.54
Neigh   | 0.92147    | 0.94734    | 0.97106    |   1.7 |  0.48
Comm    | 8.0547     | 8.7263     | 9.6371     |  18.6 |  4.39
Output  | 3.4306     | 3.4316     | 3.4391     |   0.1 |  1.73
Modify  | 171.73     | 172.31     | 172.68     |   2.1 | 86.66
Other   |            | 2.407      |            |       |  1.21

Nlocal:        72.0000 ave          75 max          68 min
Histogram: 1 0 2 0 3 1 0 1 2 2
Nghost:        1655.92 ave        1674 max        1636 min
Histogram: 1 0 3 1 0 1 3 0 1 2
Neighs:        8841.42 ave        9695 max        8191 min
Histogram: 2 0 3 0 3 0 2 1 0 1
FullNghs:      17683.3 ave       18494 max       16750 min
Histogram: 1 0 2 3 0 1 1 1 1 2

Total # of neighbors = 212200
Ave neighs/atom = 245.60185
Neighbor list builds = 4079
Dangerous builds = 0

#clear
#
#next RN
#
#jump SELF



Total wall time: 0:03:19
