
units lj                  # Use reduced LJ style units
atom_style atomic         # Uncharged point particles
atom_modify map hash      # Needed for indexing of clusters etc
                          # Used to be able to find where atoms are in relation to each other.

# Define a lattice with which to populate the simulation cell. With units
# set to 'lj' the second argument to the lattice command is the reduced
# density rho* and the spacings are multiples of that required to acheive
# that density. Also define a simulation cell called 'box' in lattice units
# and fill it with atoms. Here we're creating a box which is ten lattice
# constants in each direction.
lattice fcc 1.0 spacing 1 1 1                 # All equal sizes - gives the right reduced density.
Lattice spacing in x,y,z = 1.5874011 1.5874011 1.5874011

region box block 0 6 0 6 0 6 units lattice # Defines a region, "box", in lattice units
create_box 1 box                              # Creates a simulation box as specified above,
Created orthogonal box = (0.0000000 0.0000000 0.0000000) to (9.5244063 9.5244063 9.5244063)
  2 by 2 by 3 MPI processor grid
                                              # with one type of atom
create_atoms 1 box                            # Creates particles on lattice points
Created 864 atoms
  using lattice units in orthogonal box = (0.0000000 0.0000000 0.0000000) to (9.5244063 9.5244063 9.5244063)
  create_atoms CPU = 0.001 seconds


# Set the mass of the first (and only) atom type.
mass 1 1.0

# Lennard-Jones interactions between particles, 3.5 sigma cut-off. Apply
# long range tail corrections to energy and pressure and set all coefficients
# to unity since we work in reduced units here. Note that this doesn't shift
# the potential such that it goes to zero at the cutoff. That would require
# pair_modify('shift', 'yes').
pair_style lj/cut  3.5      # non-GPU version
pair_modify tail  yes
pair_coeff 1  1  1.0  1.0   # Intearaction between 1 and 1 set with epsilon = 1 and sigma = 1

write_data data.*
System init for write_data ...
Neighbor list info ...
  update every 1 steps, delay 10 steps, check yes
  max neighbors/atom: 2000, page size: 100000
  master list distance cutoff = 3.8
  ghost atom cutoff = 3.8
  binsize = 1.9, bins = 6 6 6
  1 neighbor lists, perpetual/occasional/extra = 1 0 0
  (1) pair lj/cut, perpetual
      attributes: half, newton on
      pair build: half/bin/atomonly/newton
      stencil: half/bin/3d
      bin: standard

#############################
#   M E L T   S Y S T E M   #
#############################

velocity all create 2.4 2750902 mom yes dist gaussian # Assign velocities
                                                    # Temperature 2.4, random number seed, zero linear momentum
						                                                        # Gaussian distribution

timestep 0.002   # simulation timestep
thermo 100       # output thermodynamic data every 100 steps

# Define a fix  in this case with index 1 applied to all
# particles in the simulation. This fix is for simulations
# in the anisotropic NPT ensemble. Note that we use the MTK
# correction.
fix 1 all npt temp 2.4 2.4 0.1 iso 5.68 5.68 0.5 mtk yes tchain 5 pchain 5 # Use NPT ensemble
                                                                         # Set temperature and pressure and damping
                                                                         # Numbers of thermostats in chain and in barostat
run 1000         # run for 10000 steps
Per MPI rank memory allocation (min/avg/max) = 3.633 | 3.633 | 3.634 Mbytes
Step Temp E_pair E_mol TotEng Press Volume 
       0          2.4   -8.3859253            0    -4.790092     -2.24275          864 
     100    1.3007594   -6.4407842            0   -4.4919034    5.3582762    891.69205 
     200    1.5828213   -6.0796178            0   -3.7081338    6.4338598    907.46239 
     300    1.7629056     -5.73851            0   -3.0972122    5.5953229    954.02439 
     400    1.8733232   -5.2785237            0   -2.4717912    6.0585808    994.36537 
     500      2.02574   -4.9360708            0   -1.9009777    5.7478153    1042.8978 
     600    2.2112838   -4.6895875            0   -1.3765009    5.7138268    1079.0368 
     700    2.3146746   -4.4629638            0  -0.99497044    5.6088298    1118.0222 
     800    2.4734008     -4.39503            0   -0.6892229    5.7937797    1123.7282 
     900    2.4206618   -4.2767239            0  -0.64993368    5.5531987    1146.9555 
    1000    2.3618098   -4.2459295            0  -0.70731524    5.7000582    1143.3852 
Loop time of 0.169507 on 12 procs for 1000 steps with 864 atoms

Performance: 1019425.773 tau/day, 5899.455 timesteps/s
99.6% CPU use with 12 MPI tasks x no OpenMP threads

MPI task timing breakdown:
Section |  min time  |  avg time  |  max time  |%varavg| %total
---------------------------------------------------------------
Pair    | 0.067282   | 0.075359   | 0.082511   |   1.5 | 44.46
Neigh   | 0.011729   | 0.012789   | 0.014294   |   0.6 |  7.54
Comm    | 0.056157   | 0.064988   | 0.074303   |   1.9 | 38.34
Output  | 0.00018831 | 0.00019367 | 0.00022482 |   0.0 |  0.11
Modify  | 0.014475   | 0.014708   | 0.014994   |   0.2 |  8.68
Other   |            | 0.00147    |            |       |  0.87

Nlocal:        72.0000 ave          80 max          66 min
Histogram: 2 1 2 2 1 0 2 0 0 2
Nghost:        1314.75 ave        1327 max        1295 min
Histogram: 1 0 0 2 3 0 0 1 2 3
Neighs:        6211.67 ave        7136 max        5326 min
Histogram: 2 0 0 2 1 4 1 0 0 2

Total # of neighbors = 74540
Ave neighs/atom = 86.273148
Neighbor list builds = 80
Dangerous builds = 2

# Equilibrate just above the melting temperature to avoid step fn in T

fix 1 all npt temp 1.25 1.25 0.1 iso 5.68 5.68 0.5 mtk yes tchain 5 pchain 5
run 1000
Per MPI rank memory allocation (min/avg/max) = 3.634 | 3.634 | 3.634 Mbytes
Step Temp E_pair E_mol TotEng Press Volume 
    1000    2.3618098   -4.2459295            0  -0.70731524    5.7000582    1143.3852 
    1100    1.8617945   -4.5967525            0    -1.807293    5.9593679    1083.5566 
    1200      1.66126   -5.0091582            0   -2.5201524    5.9308167    1028.0056 
    1300    1.4533368   -5.3154554            0   -3.1379734    5.5185254    997.93023 
    1400    1.3100587   -5.5224566            0    -3.559643    5.2858775     978.0358 
    1500    1.3306301   -5.7450087            0   -3.7513736    5.2687861    956.68836 
    1600    1.2302857    -5.777427            0   -3.9341343     5.385203    950.58576 
    1700    1.2545134   -5.8251615            0   -3.9455694    5.6370291    940.07281 
    1800    1.2669685   -5.8434457            0   -3.9451925    6.1076728    931.13358 
    1900    1.2975362   -5.8185374            0   -3.8744858    5.5765884    942.23221 
    2000    1.2225624   -5.8503078            0   -4.0185867    5.1330896    948.19804 
Loop time of 0.174024 on 12 procs for 1000 steps with 864 atoms

Performance: 992968.989 tau/day, 5746.348 timesteps/s
99.8% CPU use with 12 MPI tasks x no OpenMP threads

MPI task timing breakdown:
Section |  min time  |  avg time  |  max time  |%varavg| %total
---------------------------------------------------------------
Pair    | 0.071308   | 0.078993   | 0.089894   |   1.7 | 45.39
Neigh   | 0.010048   | 0.010759   | 0.0123     |   0.6 |  6.18
Comm    | 0.055213   | 0.067571   | 0.076152   |   2.1 | 38.83
Output  | 0.00018212 | 0.00018805 | 0.00022349 |   0.0 |  0.11
Modify  | 0.014312   | 0.01465    | 0.015027   |   0.2 |  8.42
Other   |            | 0.001863   |            |       |  1.07

Nlocal:        72.0000 ave          79 max          65 min
Histogram: 1 1 0 4 0 1 1 3 0 1
Nghost:        1466.08 ave        1476 max        1447 min
Histogram: 1 1 0 0 2 0 0 4 1 3
Neighs:        7466.67 ave        8131 max        6694 min
Histogram: 1 0 2 0 3 1 3 0 0 2

Total # of neighbors = 89600
Ave neighs/atom = 103.70370
Neighbor list builds = 67
Dangerous builds = 0


# Small amount of linear quench

fix 1 all npt temp 1.25 ${temp} 0.1 iso 5.68 5.68 0.5 mtk yes tchain 5 pchain 5
fix 1 all npt temp 1.25 0.73 0.1 iso 5.68 5.68 0.5 mtk yes tchain 5 pchain 5
run 2000
Per MPI rank memory allocation (min/avg/max) = 3.634 | 3.634 | 3.634 Mbytes
Step Temp E_pair E_mol TotEng Press Volume 
    2000    1.2225624   -5.8503078            0   -4.0185867    5.1330896    948.19804 
    2100     1.243777   -5.8663414            0   -4.0028353    5.4019359    941.12412 
    2200    1.2168523   -5.9145281            0   -4.0913622    5.7682988    929.20449 
    2300    1.1744828   -5.9302604            0   -4.1705753    6.3151437    918.07652 
    2400    1.1663872   -5.9940186            0   -4.2464627    5.9147646    919.24507 
    2500    1.1070529    -6.004524            0   -4.3458666      5.84982    917.43243 
    2600    1.0908835   -6.0557555            0   -4.4213241    5.5544506    918.14742 
    2700     1.055155   -6.1165634            0   -4.5356628     5.560885     913.0907 
    2800     1.060705   -6.1819164            0   -4.5927004    5.4409636    909.86461 
    2900    1.0013451   -6.1886542            0   -4.6883751      5.70067    903.46269 
    3000    0.9972754   -6.2433594            0   -4.7491776    5.4025656    903.39452 
    3100   0.94340497   -6.2765837            0   -4.8631141    5.4455218    900.14845 
    3200   0.95146816   -6.3060804            0     -4.88053    5.3426186    900.10558 
    3300   0.93326519   -6.3427282            0   -4.9444507      5.75114    889.36753 
    3400   0.93288427    -6.378327            0   -4.9806202    6.0194531    882.31646 
    3500   0.89734746   -6.4458829            0   -5.1014196    5.7523648    880.85677 
    3600   0.83308407   -6.4705165            0   -5.2223367    5.4223882    882.78346 
    3700   0.79871301   -6.5074838            0    -5.310801    5.2797257    881.45726 
    3800   0.78479691   -6.5764381            0   -5.4006052    5.2185162    876.80793 
    3900   0.77863828   -6.6094109            0   -5.4428053    5.4178882    870.98894 
    4000   0.76907815   -6.6218412            0   -5.4695591    5.8967818    862.98299 
Loop time of 0.353857 on 12 procs for 2000 steps with 864 atoms

Performance: 976666.106 tau/day, 5652.003 timesteps/s
99.8% CPU use with 12 MPI tasks x no OpenMP threads

MPI task timing breakdown:
Section |  min time  |  avg time  |  max time  |%varavg| %total
---------------------------------------------------------------
Pair    | 0.16069    | 0.17104    | 0.18316    |   1.6 | 48.34
Neigh   | 0.017308   | 0.018315   | 0.019772   |   0.5 |  5.18
Comm    | 0.11634    | 0.12979    | 0.14145    |   2.0 | 36.68
Output  | 0.00039435 | 0.00041069 | 0.00047865 |   0.0 |  0.12
Modify  | 0.029305   | 0.029855   | 0.030431   |   0.2 |  8.44
Other   |            | 0.00445    |            |       |  1.26

Nlocal:        72.0000 ave          78 max          68 min
Histogram: 2 0 2 2 2 0 1 2 0 1
Nghost:        1575.33 ave        1598 max        1544 min
Histogram: 1 0 2 0 1 2 1 1 2 2
Neighs:        8299.67 ave        8955 max        7719 min
Histogram: 2 2 0 1 2 0 1 1 1 2

Total # of neighbors = 99596
Ave neighs/atom = 115.27315
Neighbor list builds = 111
Dangerous builds = 0

#############################
# F R E E Z E  S Y S T E M  #
#############################

# Define solid atoms. This closely follows ten Wolde  Ruiz-Montero and Frenkel  Faraday Discuss  1996  104  93-110
# Compute components of the per-atom q6 vector
compute q6 all orientorder/atom degrees 1 6 components 6 nnn NULL cutoff 1.3 # compute the Q6 parameter.
                                                                             # Use all neighbours within 1.3 unit cell.

# get number of connections
compute coord_number all coord/atom orientorder q6 0.5

# An atom is solid if it has 8 or more connections (of a possible 14)
variable is_solid atom c_coord_number>=8
group solid dynamic all var is_solid    # Must be dynamic to update
dynamic group solid defined

# do clustering
compute cluster solid cluster/atom 1.3 # Create a cluster where all atoms within are solid and max 1.3 units from another member

# define chunks one chunk per cluster
compute clus_chunks solid chunk/atom c_cluster nchunk every compress yes  # Says which atoms are in which chunk

# count the size of each chunk
compute size_chunks solid property/chunk clus_chunks count


# Find the maximum entry in the vector of chunk sizes
variable max_n equal max(c_size_chunks)


# Thermo style which includes this variable
# thermo_style custom step temp pe vol v_max_n

thermo ${N}  # Print the thermo information every 100 steps
thermo 100  

# Reset the npt fix at a lower temperature (below freezing)

compute myRDF all rdf 100
fix 2 all ave/time 1 50 100 c_myRDF[*] file pcf.rdf mode vector


compute msd all msd com yes
variable twopoint equal c_msd[4]/6/(step*dt+1.0e-6)
fix 9 all vector 10 c_msd[4]
variable fit equal slope(f_9)/6/(10*dt)
thermo_style custom step temp pe c_msd[4] v_twopoint v_fit v_max_n


fix 1  all npt temp  ${temp} ${temp}  0.1  iso  5.68  5.68  0.5  mtk yes tchain  5  pchain  5
fix 1  all npt temp  0.73 ${temp}  0.1  iso  5.68  5.68  0.5  mtk yes tchain  5  pchain  5
fix 1  all npt temp  0.73 0.73  0.1  iso  5.68  5.68  0.5  mtk yes tchain  5  pchain  5

dump dmp2 all dcd ${N} traj.dcd
dump dmp2 all dcd 100 traj.dcd
dump dmp3 all dcd ${N} traj_unwrap.dcd
dump dmp3 all dcd 100 traj_unwrap.dcd
dump_modify dmp3 unwrap yes


# fix rnuntil all halt ${N} v_max_n >= 3980 error soft message no   # Stop when solidified

run 100000 # 5000000  # Run for this many steps
Neighbor list info ...
  update every 1 steps, delay 10 steps, check yes
  max neighbors/atom: 2000, page size: 100000
  master list distance cutoff = 3.8
  ghost atom cutoff = 3.8
  binsize = 1.9, bins = 6 6 6
  5 neighbor lists, perpetual/occasional/extra = 1 4 0
  (1) pair lj/cut, perpetual
      attributes: half, newton on
      pair build: half/bin/atomonly/newton
      stencil: half/bin/3d
      bin: standard
  (2) compute orientorder/atom, occasional
      attributes: full, newton on
      pair build: full/bin/atomonly
      stencil: full/bin/3d
      bin: standard
  (3) compute coord/atom, occasional
      attributes: full, newton on
      pair build: full/bin/atomonly
      stencil: full/bin/3d
      bin: standard
  (4) compute cluster/atom, occasional
      attributes: full, newton on
      pair build: full/bin/atomonly
      stencil: full/bin/3d
      bin: standard
  (5) compute rdf, occasional, copy from (1)
      attributes: half, newton on
      pair build: copy
      stencil: none
      bin: none
Per MPI rank memory allocation (min/avg/max) = 9.703 | 9.705 | 9.707 Mbytes
Step Temp PotEng c_msd[4] v_twopoint v_fit v_max_n 
    4000   0.76907815   -6.6218412 7.8886091e-31  1.64346e-32 8.3333333e+20           18 
    4100   0.73514212   -6.6588891  0.034378178 0.00069874337  0.031179968           19 
    4200   0.70901002   -6.6973234   0.05747589 0.0011403945  0.025309123           21 
    4300   0.73845552    -6.703132  0.071631983 0.0013882166  0.020384122           21 
    4400   0.73666831   -6.7526236   0.08589399 0.0016267799  0.017218726           17 
    4500   0.70908313   -6.7670082   0.10068988 0.0018646272  0.015684055           19 
    4600   0.70553582   -6.7224171   0.11244049 0.0020369653  0.014542462           11 
    4700   0.74436853    -6.739698   0.12199964  0.002163114  0.013505634            9 
    4800   0.71583072   -6.7346883   0.13361128   0.00231964  0.012657568            9 
    4900   0.72236221   -6.7298345   0.14832443 0.0025225241  0.012209929            6 
    5000   0.73800484   -6.7539654   0.15618543 0.0026030903  0.011796233            9 
    5100   0.69579136   -6.7045235   0.16280037 0.0026601366  0.011297065           11 
    5200   0.75595376   -6.7373371    0.1720127 0.0027566135  0.010851285            7 
    5300   0.73567379   -6.7555608   0.17436544 0.0027415947  0.010388993            8 
    5400   0.69890244   -6.7826677   0.17285851 0.0026675693 0.0097813891           13 
    5500   0.72652877   -6.7965682   0.17517912 0.0026542289 0.0091642034           10 
    5600   0.71214461   -6.7673806   0.18695585 0.0027820808  0.008662232           12 
    5700   0.73718075   -6.7265598   0.19594979 0.0028647628 0.0083373824            7 
    5800   0.74040857   -6.7065488   0.19725799 0.0028341662 0.0080492826            4 
    5900   0.71829368   -6.7512755    0.1951565 0.0027564475 0.0076917703           20 
    6000   0.77096188   -6.7885915   0.19375688 0.0026910676 0.0073048926           15 
    6100   0.73322354   -6.8058254   0.19945749 0.0027248289 0.0069569748           10 
    6200    0.7201274   -6.7709417   0.20303945 0.0027290246 0.0066469933           16 
    6300    0.7423216   -6.7535724   0.20879167 0.0027617943 0.0063762513           25 
    6400   0.73226772   -6.7395202   0.21917219 0.0028538043 0.0061886318           11 
    6500   0.72692804   -6.7570836   0.22967407 0.0029445392 0.0060663734            7 
    6600   0.75534833   -6.7368718    0.2307643 0.0029136904 0.0059492308            7 
    6700   0.71651213   -6.7330288   0.23843163 0.0029655673 0.0058462354            6 
    6800   0.73296518   -6.8410525   0.24581986  0.003012498 0.0057602763           13 
    6900   0.73860636   -6.7755611   0.25974704 0.0031370414 0.0057143342           14 
    7000   0.74489298   -6.7365656   0.27320728 0.0032524674 0.0057122771           26 
    7100   0.72634832   -6.7785727    0.2791048 0.0032758777 0.0057317768           15 
    7200   0.73734735   -6.8139731   0.28422625 0.0032896555 0.0057322682            4 
    7300   0.75779136   -6.7576308   0.28881807 0.0032970097 0.0057280357            6 
    7400     0.750049   -6.7677524   0.29318806 0.0033016671 0.0057093802           19 
    7500   0.75296106   -6.7929326   0.29820034 0.0033133369  0.005696947           17 
    7600   0.78368642   -6.8165102     0.301689 0.0033079932 0.0056727106           15 
    7700   0.74226684   -6.8056049   0.31195552 0.0033761417 0.0056552352           11 
    7800   0.70111147   -6.8089049    0.3158431 0.0033743918 0.0056281682            6 
    7900   0.72938216    -6.768999   0.32264966 0.0034034772 0.0056088598           11 
    8000   0.74464495    -6.786363   0.32844737 0.0034213265 0.0055914432           26 
    8100   0.72863627   -6.8162923   0.33474027 0.0034438297 0.0055757475           22 
    8200   0.70292155   -6.7607024   0.34449666 0.0035009821 0.0055607712            7 
    8300   0.74597613   -6.7540149   0.34888764 0.0035028878   0.00555063            7 
    8400   0.73175704   -6.7953445   0.35260539 0.0034980691 0.0055387915            5 
    8500   0.74860838   -6.8143299   0.35697797 0.0034997838 0.0055188666           11 
    8600   0.73016414   -6.7668694   0.35996161 0.0034879999 0.0054968238           16 
    8700   0.74909762   -6.7813631    0.3619714 0.0034671588 0.0054659828            3 
    8800   0.71953232   -6.8266056   0.37254636 0.0035279009  0.005439256            4 
    8900   0.73527127    -6.804259   0.37873916 0.0035462466 0.0054226577            5 
    9000   0.71444916   -6.8232104   0.39642854 0.0036706345 0.0054135184            6 
    9100   0.74191907   -6.7355101   0.40654864 0.0037229727 0.0054213222            3 
    9200   0.73817113   -6.7818041   0.42224492 0.0038246821 0.0054443282            6 
    9300   0.73501379   -6.7807985    0.4348442 0.0038964532 0.0054748541            7 
    9400   0.74760135    -6.760978   0.43771309 0.0038804349 0.0055024932            4 
    9500   0.71946928   -6.7890833   0.45257241 0.0039699332 0.0055315151            6 
    9600   0.71093406   -6.7653293   0.46870497 0.0040686193 0.0055717997           13 
    9700   0.71709239   -6.7763802   0.48417176  0.004159551 0.0056221585            6 
    9800   0.69854046   -6.8242605   0.49725945 0.0042283965 0.0056756377            5 
    9900   0.76929812   -6.8102758   0.50846388 0.0042799988 0.0057323419            5 
   10000   0.74046567    -6.733993   0.51193053 0.0042660875  0.005787652           10 
   10100   0.75380619   -6.8443725   0.51294247 0.0042321984 0.0058269764            7 
   10200   0.71498723   -6.8101668   0.52606774 0.0042979389 0.0058670533           11 
   10300   0.71950086   -6.7799803   0.52579787 0.0042540279 0.0058965683           15 
   10400   0.74654662   -6.7992733   0.54009477 0.0043276822 0.0059296252           12 
   10500   0.70898665   -6.7807949   0.54905977  0.004357617 0.0059614123           11 
   10600   0.69537224   -6.7892342   0.56324264  0.004428008 0.0059995988           17 
   10700   0.69845971    -6.743907   0.56379538 0.0043909295 0.0060333418           16 
   10800   0.73897459   -6.7797447   0.56846867 0.0043863321 0.0060564543           14 
   10900   0.69753659   -6.7865604   0.57838415  0.004421897 0.0060780031           10 
   11000   0.73300925    -6.778596   0.57928754 0.0043885418 0.0060978823           10 
   11100   0.72914777   -6.7808667   0.58938276 0.0044247953 0.0061125358           14 
   11200   0.70720161    -6.793228   0.59399871  0.004419633 0.0061256981            9 
   11300   0.73324744   -6.8260833   0.59018989 0.0043524327 0.0061303475           23 
   11400   0.75888712   -6.7633382   0.59455067 0.0043461305 0.0061320245           14 
   11500   0.74449544   -6.8089806   0.59769291 0.0043311078 0.0061278405           10 
   11600   0.73962865    -6.781839   0.60879642 0.0043735373 0.0061251086           13 
   11700   0.75637913   -6.7485461   0.62747186 0.0044691726 0.0061268204           13 
   11800   0.72747893   -6.7861829   0.65006859 0.0045908797 0.0061418072           26 
   11900   0.72580548   -6.7984091    0.6545329 0.0045835636 0.0061601779           43 
   12000   0.76178738   -6.7324651   0.64702727 0.0044932447 0.0061701101           15 
   12100   0.73869337   -6.7792057   0.64543845 0.0044451682 0.0061701035           13 
   12200   0.70777585   -6.7196808   0.65115159 0.0044477566 0.0061645488            4 
   12300   0.75255702   -6.7585174   0.64916727  0.004398152 0.0061566039           16 
   12400   0.75390302   -6.7792031   0.63852102 0.0042911357 0.0061392353           11 
   12500   0.73740878   -6.7834059   0.64591518 0.0043061011 0.0061174617           36 
   12600   0.72331349   -6.7698401   0.65152458 0.0043090248 0.0060945514           21 
   12700   0.74359056    -6.783523   0.67118548 0.0044041041 0.0060788798           23 
   12800   0.70123538   -6.8021245    0.6842932 0.0044550337 0.0060679482           28 
   12900   0.71235803   -6.7588845   0.68830923 0.0044464419  0.006060961           16 
   13000   0.71047643   -6.7420644   0.69722749 0.0044694068 0.0060536799            9 
   13100   0.76114244   -6.7677667   0.69999841 0.0044529159 0.0060459469           28 
   13200   0.74375895    -6.826522   0.69424232 0.0043828428 0.0060317459           16 
   13300   0.74165949   -6.7918324   0.69913494 0.0043805445 0.0060151289           29 
   13400    0.7499388   -6.7547063    0.7112391 0.0044231286  0.006000701           15 
   13500   0.71369704   -6.7992145   0.71218307 0.0043961917 0.0059868749           31 
   13600   0.74752525   -6.7728176   0.70081293 0.0042941967 0.0059686564           22 
   13700    0.7427239   -6.7723498   0.69194407 0.0042089054 0.0059399336           17 
   13800    0.7214634   -6.7810431   0.68946474 0.0041634343 0.0059078161           19 
   13900   0.71586527   -6.8238227   0.68796019 0.0041244614 0.0058717838            9 
   14000   0.68059736   -6.8348455   0.69704381 0.0041490701 0.0058366982           19 
   14100   0.70989634   -6.7862198   0.70759881 0.0041820259 0.0058037507           18 
   14200   0.72218065   -6.7705431   0.72242335 0.0042395735 0.0057774063           26 
   14300   0.71075791   -6.8225366   0.72511035 0.0042255846 0.0057536213            9 
   14400   0.74140461   -6.8760176    0.7214571 0.0041750988 0.0057268819           22 
   14500   0.77856074   -6.8227781   0.72860851 0.0041874051 0.0056990815           15 
   14600   0.71838182   -6.7920788   0.74037765 0.0042258997  0.005675261            8 
   14700   0.75040102   -6.8297496   0.76448113 0.0043337931 0.0056573084           24 
   14800   0.73762105   -6.7747251   0.77169859 0.0043451496 0.0056450235           10 
   14900   0.74955435   -6.7470298   0.75790546 0.0042388447 0.0056269895           10 
   15000   0.72943281   -6.7504916   0.76185749 0.0042325415 0.0056055909           13 
   15100   0.73242884   -6.8011402   0.77571329 0.0042809783 0.0055875553           25 
   15200   0.77706542   -6.7767798   0.77329232 0.0042395411 0.0055700626           31 
   15300   0.72577431    -6.780921   0.76752006 0.0041803924 0.0055481139           24 
   15400     0.728186    -6.802063   0.77591478 0.0041986729 0.0055257178           33 
   15500   0.71184925   -6.8290281    0.7715245  0.004147981 0.0055020741           29 
   15600    0.7233213   -6.7922902   0.77300369 0.0041292931 0.0054772449           12 
   15700   0.76157975    -6.818289   0.76203297 0.0040447608 0.0054495328           43 
   15800   0.72557407    -6.805062   0.76155123 0.0040166203  0.005419225           58 
   15900   0.74637136   -6.8402752   0.76741949 0.0040221146 0.0053887952           19 
   16000   0.74040153   -6.7771734   0.78668442 0.0040973145 0.0053615482           17 
   16100   0.77015443   -6.7604756   0.80726078 0.0041783683 0.0053407283            7 
   16200    0.7297425    -6.738753   0.81683589 0.0042018306 0.0053236223            7 
   16300   0.71851478   -6.7393376   0.82624212 0.0042241416 0.0053087888           10 
   16400   0.71507611   -6.7178899   0.83731258 0.0042546369 0.0052954963           12 
   16500   0.75766192   -6.7398632   0.84227597 0.0042539189  0.005283822            9 
   16600     0.728624   -6.7656766   0.84255462 0.0042296917 0.0052704335           15 
   16700   0.71500879   -6.7929462   0.85260902 0.0042545359 0.0052581009           14 
   16800   0.67816287   -6.8155578   0.84913436 0.0042119759 0.0052442892           33 
   16900   0.70718833   -6.8117086   0.86788766 0.0042795248 0.0052314229           45 
   17000   0.69510724   -6.7848882   0.87042456 0.0042667869 0.0052198906           21 
   17100    0.7205402   -6.7946788   0.88185473 0.0042975376 0.0052101616           22 
   17200   0.70526536   -6.7458481   0.89727723 0.0043472733  0.005202904           29 
   17300   0.72388843   -6.7160097      0.89611  0.004316522 0.0051973499           29 
   17400   0.69686748   -6.7727284   0.89927317 0.0043068637 0.0051898675           47 
   17500   0.70395713   -6.8518405   0.90057612 0.0042884576 0.0051807431           21 
   17600   0.71914588   -6.7706401    0.9148564 0.0043317063 0.0051732553           29 
   17700     0.760332   -6.8095213   0.92795916 0.0043689225 0.0051687577           17 
   17800   0.72853034   -6.8027844   0.93969222  0.004399308 0.0051661145           13 
   17900   0.71999644   -6.8217081   0.92691757 0.0043152586 0.0051602124           16 
   18000   0.74449057   -6.7955603   0.93477227 0.0043276493 0.0051530558           11 
   18100   0.75734423   -6.7789686   0.92616545 0.0042641134 0.0051454305            9 
   18200   0.71817478   -6.7959391   0.92691922 0.0042441355 0.0051350875           14 
   18300   0.74156942   -6.8035482   0.93898173  0.004275873 0.0051255345           19 
   18400   0.77807756    -6.843125   0.93938079 0.0042544419 0.0051154466           11 
   18500   0.71259287    -6.816931   0.96139335 0.0043306006 0.0051078195           24 
   18600   0.74764968   -6.8083954   0.97642619 0.0043746692 0.0051034149           16 
   18700   0.73462929    -6.706164   0.98986272 0.0044111528 0.0051011633           29 
   18800   0.72154532    -6.738376   0.99696599 0.0044191754 0.0050993213           17 
   18900   0.72326551   -6.7607749    1.0020514 0.0044182159 0.0050978761           24 
   19000   0.69591283   -6.8013557    1.0185819 0.0044674642 0.0050976933           49 
   19100   0.71917636   -6.7650593     1.018681 0.0044445069 0.0050980672           31 
   19200   0.75571509   -6.7975144    1.0225845 0.0044383008 0.0050970091           18 
   19300   0.70323723   -6.7539096     1.026256  0.004431157 0.0050957034           72 
   19400    0.7178659   -6.7786781    1.0338195 0.0044408053 0.0050945558          109 
   19500   0.71111667   -6.8069307    1.0487876 0.0044819983 0.0050948636          105 
   19600   0.74524734   -6.7740459    1.0694303 0.0045468975 0.0050971259           77 
   19700   0.69682644    -6.780544    1.0833438 0.0045826725 0.0051019235           91 
   19800   0.70884006    -6.790881    1.0842976 0.0045635421 0.0051055591          104 
   19900   0.70965883   -6.7776823    1.0912214 0.0045696039 0.0051082118           30 
   20000   0.75392742   -6.7632426    1.0916825 0.0045486769 0.0051113238           38 
   20100   0.73194702   -6.7471451    1.0922628 0.0045284527 0.0051138377           49 
   20200   0.71971568   -6.7803804    1.0967626 0.0045245979 0.0051154407           77 
   20300   0.70311157   -6.7248146    1.0857326 0.0044570303   0.00511465           91 
   20400   0.73368876   -6.7597709    1.0877036 0.0044432334 0.0051122244           58 
   20500   0.73336452   -6.7633414    1.0827749 0.0044015239 0.0051084282           92 
   20600   0.72927654   -6.8089319    1.0905498 0.0044116092 0.0051040383           81 
   20700    0.7265045   -6.8456441    1.0998268 0.0044276442 0.0050996783           87 
   20800   0.72415422   -6.8231081     1.117007 0.0044751881 0.0050971666           71 
   20900   0.75301291   -6.8108826    1.1177359 0.0044566821 0.0050955207           60 
   21000   0.76388429     -6.72521    1.1282193 0.0044770606 0.0050938955           24 
   21100   0.74187926   -6.7748837     1.132885 0.0044742694 0.0050932136           38 
   21200   0.73616872   -6.8185692    1.1475662 0.0045108733 0.0050919293           28 
   21300   0.72903582   -6.8608547    1.1580153 0.0045305761  0.005091762           75 
   21400   0.75273276   -6.7987679    1.1696154 0.0045545771 0.0050929091           21 
   21500   0.71448511   -6.7830698    1.1765289 0.0045601893 0.0050944636           40 
   21600   0.74775489   -6.8085515    1.1905435 0.0045931462 0.0050962913           15 
   21700   0.71835624   -6.7909425    1.2028277  0.004619154 0.0050996411           13 
   21800   0.75462089    -6.804487    1.2163441 0.0046496334 0.0051038566           50 
   21900    0.7446722   -6.7997058    1.2039887 0.0045813875 0.0051064371           72 
   22000   0.72117688   -6.8388256    1.2050872 0.0045647241 0.0051077228           26 
   22100   0.75227528   -6.8333228    1.2038651 0.0045394612 0.0051080913           29 
   22200   0.71237807   -6.7798396    1.2071083 0.0045311872 0.0051075307           38 
   22300   0.74033756   -6.8281267    1.2090686 0.0045181935 0.0051066944           65 
   22400   0.74574067   -6.7829281    1.2107874 0.0045044173 0.0051048739           44 
   22500   0.71995646   -6.8023358    1.2199616 0.0045183763  0.005103566           73 
   22600   0.72252479   -6.8583026    1.2299616 0.0045352564 0.0051013035          104 
   22700   0.72810392   -6.8219804    1.2530698 0.0046001093 0.0051013938           84 
   22800   0.73093026   -6.8171968    1.2684647 0.0046362013 0.0051035507           53 
   22900   0.70109243    -6.844714    1.2708655 0.0046246926 0.0051062527           54 
   23000   0.72990096   -6.8065519    1.2611877 0.0045695205 0.0051072062           80 
   23100   0.76109131   -6.8190457    1.2521566 0.0045171593 0.0051065266           47 
   23200   0.74885734   -6.8470096    1.2546693 0.0045067143 0.0051047167           51 
   23300   0.74459131   -6.7951882    1.2528384  0.004480824 0.0051013994           81 
   23400   0.70725382   -6.8512289    1.2481975 0.0044451477 0.0050970883           86 
   23500   0.68358019   -6.8286227    1.2622125 0.0044759307 0.0050924252          135 
   23600   0.75611599   -6.8543254     1.268896 0.0044805648 0.0050888369          135 
   23700   0.73629395   -6.8657352    1.2817536  0.004506869 0.0050858502           74 
   23800    0.7569206   -6.9110133    1.2734911 0.0044590025 0.0050828524          128 
   23900   0.76285354   -6.8458791    1.2832298 0.0044743019 0.0050787903          142 
   24000   0.71686687   -6.8363152     1.302258 0.0045217291 0.0050759502          157 
   24100   0.70226683   -6.8675097    1.3199762  0.004564233  0.005074673          176 
   24200   0.74147451   -6.8412886    1.3295731 0.0045784196 0.0050744229          178 
   24300   0.73229573   -6.7913353    1.3235446 0.0045389046 0.0050736063          171 
   24400   0.71965366   -6.8258546    1.3220589 0.0045152284 0.0050715749          179 
   24500   0.70886174   -6.7749684    1.3392938 0.0045554209 0.0050701181          135 
   24600   0.72563073   -6.8244536    1.3504853 0.0045748147 0.0050692661          147 
   24700   0.73557244   -6.8422055    1.3380636 0.0045143845 0.0050679872          141 
   24800   0.73947412   -6.8670397    1.3441833 0.0045167449 0.0050655045          162 
   24900   0.73977518    -6.833516    1.3337366 0.0044636432 0.0050621167          158 
   25000   0.74685487   -6.8855985    1.3256315 0.0044187716 0.0050573679          129 
   25100   0.73473961   -6.8761412    1.2928275 0.0042922559 0.0050489332          160 
   25200   0.75577179    -6.803481     1.298829 0.0042950695 0.0050394511          125 
   25300   0.75486383   -6.8507307    1.3023812  0.004289793 0.0050302075          182 
   25400   0.71705955   -6.9049502    1.3128074  0.004307111 0.0050208486          175 
   25500   0.71402363   -6.8436553     1.321019 0.0043170554 0.0050118229          198 
   25600   0.70602466   -6.8721236    1.3404413 0.0043634157 0.0050044546          201 
   25700   0.72560554   -6.8313711    1.3380391 0.0043386481 0.0049969501          214 
   25800   0.73851291   -6.8637951    1.3682828 0.0044195181 0.0049908169          213 
   25900   0.72808275    -6.874472    1.3811093 0.0044437235 0.0049871885          217 
   26000   0.72838259   -6.8125721     1.381543 0.0044280223 0.0049833932          203 
   26100   0.72287239   -6.8165354    1.3849533 0.0044219452 0.0049789425          215 
   26200   0.72019533    -6.856158    1.3832503 0.0043996508 0.0049741437          212 
   26300   0.70955618   -6.8615572    1.3898583 0.0044038603 0.0049693206          202 
   26400   0.72976563   -6.7752926    1.3918914 0.0043935965 0.0049641655          174 
   26500   0.74621639   -6.8424735    1.4042201 0.0044157863 0.0049597046          166 
   26600   0.75199142    -6.816668    1.3940117 0.0043672044 0.0049551123          163 
   26700   0.74552626   -6.7719985    1.3991204 0.0043667926 0.0049490294          157 
   26800   0.70593584   -6.8528036    1.4120142 0.0043905913 0.0049437551          171 
   26900   0.74620354   -6.8543313    1.4154974 0.0043850602 0.0049385747          172 
   27000   0.72692044   -6.7789807    1.4390191  0.004441417   0.00493446          195 
   27100   0.70801574   -6.8088199    1.4493404 0.0044567661 0.0049317056          182 
   27200   0.70959942   -6.8480092    1.4673021 0.0044954107 0.0049292296          122 
   27300    0.7423283   -6.8047951    1.4819706 0.0045237196 0.0049282906          181 
   27400   0.76817298   -6.8542173    1.4711298 0.0044742389 0.0049267784          173 
   27500   0.71705676   -6.8367067    1.4611832 0.0044278277 0.0049234662          186 
   27600   0.75547746    -6.844163    1.4643275 0.0044212786 0.0049199829          231 
   27700   0.77617807   -6.7848828    1.4592213 0.0043899558 0.0049159955          217 
   27800   0.75523675   -6.8282705    1.4584018 0.0043717079 0.0049111652          225 
   27900   0.72820248   -6.8637721    1.4653594 0.0043768201 0.0049061301          222 
   28000   0.70288725   -6.7832904    1.4721651 0.0043814437 0.0049011691          203 
   28100   0.72674661   -6.8073775     1.484294 0.0044018208 0.0048970619          193 
   28200   0.75704139   -6.8812791    1.4762332 0.0043623912 0.0048925329          214 
   28300   0.70265279   -6.7747644    1.4604801 0.0043005892 0.0048861121          202 
   28400   0.69683455   -6.8103231    1.4335942 0.0042065557 0.0048777217          214 
   28500   0.72566326   -6.8910691    1.4429291 0.0042190907 0.0048684242          209 
   28600   0.72966814   -6.8686631    1.4669018 0.0042741893 0.0048601415          176 
   28700   0.72005441   -6.8142668    1.4859355 0.0043145629 0.0048532592          177 
   28800   0.73521072   -6.8352081    1.5118873 0.0043746738 0.0048485117          228 
   28900   0.73526341   -6.8416381    1.5132991 0.0043636076  0.004844038          246 
   29000   0.77954217   -6.8788907    1.5106357 0.0043409072 0.0048398966          230 
   29100   0.74121314   -6.8749784    1.5028003 0.0043035517 0.0048345844          232 
   29200   0.74998966   -6.8515254    1.5120924  0.004315332 0.0048290192          225 
   29300   0.72690281   -6.8110691    1.5220745 0.0043289945 0.0048237387          215 
   29400   0.70141757    -6.841817    1.5109077 0.0042826181 0.0048176955          181 
   29500   0.73610157    -6.843661    1.5234316 0.0043034791 0.0048119109          204 
   29600   0.74386832   -6.8549835    1.5136183 0.0042613126 0.0048055393          211 
   29700     0.713221   -6.8841134    1.4922808 0.0041870955 0.0047977482          226 
   29800   0.71871157   -6.8223079    1.5064076 0.0042125492 0.0047896235          221 
   29900   0.77556034   -6.8238318    1.5007149 0.0041825945 0.0047820677          225 
   30000   0.73622532   -6.8482133    1.5062929 0.0041841468 0.0047736814          220 
   30100     0.738564   -6.8702097    1.5004227 0.0041539942 0.0047654295          230 
   30200   0.70317586   -6.8773285    1.5067729 0.0041577619 0.0047566704          233 
   30300   0.71874431   -6.8538786    1.5196899 0.0041795652 0.0047481668          207 
   30400   0.73082413   -6.8501329    1.5364564 0.0042117775 0.0047406781          249 
   30500   0.70773504   -6.8785991    1.5493884 0.0042333016  0.004734272          229 
   30600    0.7318785   -6.8438259    1.5473744 0.0042139825 0.0047275708          240 
   30700   0.73286001   -6.8298546     1.541793 0.0041851057 0.0047206702          230 
   30800   0.71305748   -6.8761164    1.5446544 0.0041792597 0.0047133311          227 
   30900   0.73023813   -6.9092021    1.5613253 0.0042106939 0.0047062874          275 
   31000   0.72408021   -6.8374644    1.5733961 0.0042295594 0.0046999619          236 
   31100   0.74060156   -6.8184605    1.5932834  0.004269248 0.0046947878          214 
   31200   0.74587798   -6.8306127    1.6056858 0.0042886907 0.0046898881          190 
   31300   0.71137671   -6.8646637    1.6057735 0.0042752224 0.0046853335          225 
   31400   0.71685366    -6.826704    1.5957561 0.0042350215 0.0046803701          226 
   31500    0.7174309   -6.9014874    1.5882229 0.0042016478  0.004674908          229 
   31600   0.77524054   -6.9182034    1.5906008 0.0041946223 0.0046685943          235 
   31700   0.71354121   -6.8936612    1.6130116 0.0042403038 0.0046632167          222 
   31800    0.7541828   -6.8894621    1.6217109 0.0042497664 0.0046581559          205 
   31900   0.72735695   -6.8363053    1.6192486  0.004230012  0.004653036          193 
   32000   0.75289048   -6.8661692    1.6151629 0.0042061534 0.0046479059          239 
   32100   0.72979145   -6.9342487    1.6132988 0.0041882106 0.0046425053          244 
   32200   0.69058835   -6.9121385    1.6202299 0.0041931416 0.0046365754          233 
   32300   0.73292117   -6.9083017    1.6294338 0.0042039054 0.0046309083          234 
   32400    0.7453996   -6.8861798    1.6424767  0.004224477 0.0046261119          232 
   32500   0.73513209   -6.9291882    1.6403069 0.0042059151 0.0046209537          233 
   32600    0.7472201   -6.8990672    1.6542044 0.0042285387 0.0046163414          202 
   32700   0.73690009   -6.8621111    1.6689728 0.0042532436 0.0046120624          201 
   32800     0.720871   -6.8800679    1.6528668 0.0041993565 0.0046075224          185 
   32900   0.72764296   -6.8943475    1.6503669 0.0041802605 0.0046020498          202 
   33000    0.7749727   -6.8981313    1.6623005 0.0041977285 0.0045969067          209 
   33100   0.71849501   -6.8268861     1.655272 0.0041673514 0.0045915264          215 
   33200   0.76108899   -6.8176783    1.6460897 0.0041317513 0.0045854579          251 
   33300   0.72369264    -6.896905    1.6467191 0.0041209187 0.0045791117          266 
   33400   0.73836512   -6.9212144    1.6613419 0.0041450645 0.0045727911          252 
   33500   0.70480614   -6.8754566    1.6582046  0.004124887 0.0045665303          245 
   33600   0.71697157   -6.9273913    1.6796206 0.0041657256 0.0045605876          262 
   33700    0.7518048   -6.8895904     1.693871 0.0041886028 0.0045555784          227 
   33800   0.71365191   -6.8283196    1.6958955 0.0041812018 0.0045507844          231 
   33900   0.71117163   -6.8419894     1.701069 0.0041815854 0.0045461318          234 
   34000   0.72822104   -6.8213919    1.6994127 0.0041652271 0.0045413105          238 
   34100   0.71338503   -6.8813857    1.6790671  0.004103292 0.0045356656          259 
   34200   0.74113544   -6.8874048    1.6835934  0.004102323 0.0045295144          291 
   34300   0.75355332   -6.8335065    1.6883933 0.0041020246 0.0045235737          270 
   34400   0.72034276   -6.8758927    1.6807649 0.0040716204 0.0045173941          260 
   34500   0.72669872   -6.8850391    1.6875507 0.0040762094 0.0045103276          231 
   34600   0.73972312   -6.9200494    1.7141868 0.0041285809 0.0045047295          258 
   34700   0.72922805   -6.8564698    1.7196966 0.0041299148 0.0044999996          261 
   34800   0.79791782   -6.9143923    1.7225618 0.0041249086 0.0044950048          247 
   34900   0.72319162   -6.8393358    1.7253134 0.0041196596 0.0044902488          236 
   35000   0.72888623   -6.8595257    1.7400147  0.004142892 0.0044853896          211 
   35100   0.69700365   -6.8575012    1.7536358 0.0041634279  0.004480739          224 
   35200   0.71790461   -6.8425988    1.7290287 0.0040933445 0.0044755768          227 
   35300   0.74558067   -6.8279629    1.7286977  0.004080967 0.0044700462          249 
   35400   0.70722535    -6.856107    1.7285278  0.004069039  0.004464045          207 
   35500   0.73704787   -6.8460318    1.7369757 0.0040774077 0.0044581632          247 
   35600   0.72924288   -6.7501637    1.7430028 0.0040800627 0.0044528396          249 
   35700   0.73063066   -6.8607966    1.7324692 0.0040440458 0.0044466716          242 
   35800   0.73875572   -6.8679935    1.7317739  0.004031131 0.0044402101          249 
   35900   0.77345319   -6.8273429    1.7407061 0.0040406363  0.004434128          215 
   36000   0.70723389   -6.7860798    1.7712063 0.0041000145 0.0044288667          207 
   36100   0.75266273   -6.8329857    1.7923443 0.0041374522 0.0044246863          218 
   36200   0.70870812   -6.8442427     1.814532 0.0041770995 0.0044208838          192 
   36300   0.74480406   -6.8580249    1.8052142 0.0041442015 0.0044172898          240 
   36400    0.7258808   -6.8491633    1.7872693 0.0040917337 0.0044132209          247 
   36500   0.75096452   -6.9293771    1.7942032 0.0040963543 0.0044087417          259 
   36600   0.68280956   -6.8821723    1.7969262 0.0040913619 0.0044041718          261 
   36700   0.73081924   -6.8798457    1.8109477  0.004112052 0.0043999981          249 
   36800   0.74283836   -6.8648591    1.8107761 0.0041004894  0.004395812          262 
   36900   0.71383861   -6.8487567    1.8028713  0.004071525 0.0043912125          255 
   37000   0.71564876   -6.9165793    1.7828299 0.0040153827  0.004385664          274 
   37100   0.71618362   -6.8621363    1.8063201 0.0040573226 0.0043800618          259 
   37200    0.7318101   -6.8623787    1.7990685 0.0040301714 0.0043750377          309 
   37300   0.72263133   -6.8963692    1.8105534 0.0040450255 0.0043697431          282 
   37400   0.73279703   -6.8278818    1.8187142 0.0040523934 0.0043650477          326 
   37500   0.74174703    -6.904058    1.8134526 0.0040298946 0.0043601582          345 
   37600   0.70421234   -6.9424634     1.818185 0.0040296652 0.0043547735          326 
   37700    0.7314214    -6.899353    1.8165778 0.0040154238 0.0043494399          316 
   37800   0.75497693   -6.8826163    1.8316502 0.0040380294 0.0043445581          340 
   37900   0.73879748   -6.8916672    1.8213169 0.0040046545 0.0043397616          283 
   38000   0.72810779   -6.8907842    1.8249303 0.0040020401 0.0043343715          270 
   38100   0.72831761   -6.9383032    1.8319748  0.004006944 0.0043290839          269 
   38200   0.75070186   -6.8983073    1.8412998 0.0040167971 0.0043238658          296 
   38300   0.75020847   -6.8310626    1.8500979 0.0040254523 0.0043191865          306 
   38400   0.73107274   -6.9124159    1.8375324 0.0039877006 0.0043144785          289 
   38500   0.72300052    -6.925511    1.8435711 0.0039904136 0.0043093172          309 
   38600   0.73098789   -6.8794789     1.845731 0.0039847388 0.0043037307          314 
   38700    0.7485768   -6.8803711    1.8351207 0.0039515949 0.0042983728          350 
   38800   0.72039396   -6.8948915    1.8464056 0.0039656476 0.0042929398          359 
   38900   0.76494563   -6.9355879    1.8554986 0.0039749326 0.0042876267          320 
   39000   0.69850164   -6.8476344    1.8490791 0.0039510237 0.0042821771          313 
   39100   0.76887904   -6.8816157    1.8468276 0.0039361203 0.0042765348          314 
   39200   0.70836589   -6.8864301    1.8461296 0.0039245951 0.0042707453          315 
   39300   0.71382785   -6.9007773    1.8560632 0.0039356726 0.0042649405          343 
   39400   0.75008262   -6.8973967    1.8694234  0.003953941 0.0042594875          379 
   39500   0.73240893   -6.9370632    1.8639344  0.003932351 0.0042540358          368 
   39600   0.73993237   -6.9496001    1.8469388 0.0038866556 0.0042480132          358 
   39700   0.72350922   -6.8371167    1.8507769  0.003884922 0.0042417828          363 
   39800   0.73876842   -6.8962152    1.8436635 0.0038602669 0.0042354023          360 
   39900   0.73724943   -6.8910759    1.8378093 0.0038383653 0.0042287245          369 
   40000   0.72050306   -6.9240847     1.868544 0.0038927999 0.0042222591          370 
   40100    0.7298825   -6.9172215     1.875714 0.0038979924 0.0042165503          360 
   40200   0.75639076   -6.8337946    1.8894792 0.0039168308 0.0042111451          364 
   40300   0.79374327   -6.8909554    1.8803916 0.0038883201 0.0042060324          394 
   40400   0.76050447   -6.9458049    1.8985645 0.0039161808 0.0042008711          423 
   40500    0.7639195   -6.9982803     1.922235  0.003955216 0.0041962933          420 
   40600   0.75128268   -6.9390327     1.912505 0.0039255028 0.0041916796          401 
   40700   0.77174266   -6.8897411    1.9267732  0.003945072 0.0041871339          393 
   40800   0.74826681   -6.9330092    1.9266804 0.0039352132 0.0041829717          417 
   40900   0.75799351   -6.9801155    1.9155794 0.0039029734 0.0041782487          422 
   41000   0.74344805   -6.9658642    1.8936443 0.0038488704 0.0041727864          433 
   41100   0.72846105   -7.0249541    1.8970215 0.0038463534 0.0041669958          471 
   41200   0.71469998     -6.96796    1.9404287 0.0039248154 0.0041620352          469 
   41300   0.72833661   -6.9804673    1.9524065 0.0039394805 0.0041578784          452 
   41400   0.72612912   -6.9712816    1.9534511 0.0039320674 0.0041536774          471 
   41500   0.75504418   -7.0229097    1.9377726 0.0038911096 0.0041489428          494 
   41600   0.72939778   -6.9676395    1.9383226 0.0038828577 0.0041440788          513 
   41700   0.74573737    -6.963823    1.9507277 0.0038983367 0.0041395929          545 
   41800   0.78992927   -7.0248207    1.9575959 0.0039027032 0.0041353008          533 
   41900   0.73743575   -7.0379874    1.9529883  0.003884225 0.0041308486          565 
   42000   0.73279824   -6.9723197    1.9607137  0.003890305 0.0041263904          532 
   42100   0.73607694   -7.0114168    1.9750935 0.0039095279 0.0041219928          534 
   42200    0.7120017   -6.9913357    1.9896706 0.0039290493  0.004117905          530 
   42300   0.69882773   -7.0559838    1.9896334 0.0039196875 0.0041139453          565 
   42400    0.7172893   -7.0267664    1.9999644 0.0039307477 0.0041100393          565 
   42500   0.76487449   -7.0422782     2.006768 0.0039348392 0.0041063251          554 
   42600   0.71809401   -7.0237671    2.0202845 0.0039520431 0.0041031945          556 
   42700   0.74020268   -7.0265862    2.0240894 0.0039502135 0.0041001141          550 
   42800   0.72771384    -7.039432     2.056816 0.0040047039 0.0040974387          578 
   42900   0.70712187   -7.1023571    2.0497964 0.0039817335 0.0040950378          602 
   43000   0.71234859   -7.0688376    2.0684636 0.0040086503 0.0040925829          587 
   43100    0.7330583   -7.0341501    2.0523321 0.0039681595 0.0040900193          589 
   43200   0.73616247   -7.0922564    2.0581032 0.0039701064 0.0040872681          631 
   43300   0.73941286   -7.0972453     2.053311 0.0039517148 0.0040845895          648 
   43400   0.72455666   -7.0820191    2.0619677 0.0039592314 0.0040818427          701 
   43500   0.75523288   -7.1459619    2.0890917 0.0040020913 0.0040797293          705 
   43600   0.71593853   -7.1707053    2.0942588 0.0040027882  0.004077742          735 
   43700   0.72121868   -7.1483119    2.1196615 0.0040420699 0.0040762211          733 
   43800   0.73302141   -7.1014769    2.1134951 0.0040211093 0.0040747869          735 
   43900   0.72770174   -7.1988345    2.1145777 0.0040140046 0.0040733088          720 
   44000   0.71058185   -7.1713243    2.1295055 0.0040331542 0.0040716727          729 
   44100   0.71686712   -7.1888574    2.1472924 0.0040576198 0.0040706571          750 
   44200   0.72225855   -7.1730631    2.1513156 0.0040560248 0.0040693995          778 
   44300   0.71396379   -7.2389673     2.178732 0.0040984425 0.0040687772          788 
   44400   0.75481312   -7.2450606    2.1684204 0.0040698581 0.0040680834          800 
   44500   0.76496258   -7.1885483    2.1663252 0.0040567887 0.0040674264          778 
   44600   0.74825677   -7.1802749    2.1676969 0.0040502558 0.0040664679          800 
   44700   0.74326923   -7.2324872    2.1804355 0.0040649431 0.0040658176          805 
   44800    0.7653884   -7.2073929    2.1775405 0.0040504845 0.0040650178          798 
   44900   0.70584637   -7.2378512    2.1811945 0.0040482451 0.0040638298          789 
   45000   0.70659517   -7.1956568    2.1970875 0.0040686805 0.0040629269          797 
   45100   0.72830087   -7.1673445    2.1896475 0.0040459118 0.0040619944          813 
   45200    0.7237713   -7.2433271    2.1692932 0.0039994342 0.0040605786          818 
   45300   0.71573014   -7.2461623      2.17539 0.0040018211 0.0040588065          811 
   45400    0.7252859   -7.2047859    2.1923834 0.0040241985 0.0040572211          809 
   45500   0.76324841   -7.2343165     2.193207 0.0040168626 0.0040556787          816 
   45600   0.72688275   -7.2385103    2.2033772 0.0040266395  0.004054412          810 
   45700   0.73474655   -7.3054553    2.2079234 0.0040261184 0.0040530674          813 
   45800   0.74359185   -7.2642512    2.2063553 0.0040144746 0.0040516726          820 
   45900     0.767619   -7.1829008    2.2040341 0.0040015144 0.0040504763          814 
   46000   0.73284014   -7.2404022     2.219163 0.0040202228 0.0040493709          826 
   46100   0.68954121   -7.2651695    2.2195794 0.0040122549 0.0040481006          820 
   46200   0.72744906   -7.2826206    2.2428959 0.0040456274 0.0040468923          806 
   46300   0.73018721   -7.2396035    2.2409961 0.0040334702 0.0040458866          812 
   46400   0.71444015   -7.2552723     2.246661 0.0040349515  0.004045011          806 
   46500   0.73331029    -7.287654    2.2654077 0.0040598704 0.0040440223          818 
   46600   0.72229101   -7.3456711    2.2826785  0.004082043 0.0040437583          825 
   46700   0.72024127     -7.31068    2.2805979 0.0040695894 0.0040434839          818 
   46800   0.71681895   -7.2621256    2.2839064 0.0040667849 0.0040431007          830 
   46900   0.77657811   -7.3267688    2.2825537 0.0040557101 0.0040427694          845 
   47000   0.70684244   -7.3091983    2.2582834 0.0040040485 0.0040416285          851 
   47100   0.74923158    -7.369041    2.2635883 0.0040049332 0.0040402992          848 
   47200   0.74116425    -7.384965    2.2542783  0.003980011 0.0040387503          850 
   47300    0.7003705   -7.2715463    2.2497314 0.0039635859 0.0040369763          847 
   47400   0.73878414   -7.3203534    2.2628713  0.003978325 0.0040352893          842 
   47500   0.72551371   -7.3676704     2.275363 0.0039918649  0.004033693          850 
   47600   0.73265153   -7.3209238    2.2830364 0.0039969125 0.0040321005          848 
   47700   0.74695966   -7.3159529    2.2952499 0.0040098706 0.0040308742          847 
   47800   0.70836157   -7.2885428    2.2981211 0.0040064872 0.0040297836          848 
   47900   0.72812477   -7.3097638    2.2921077 0.0039876613 0.0040284758          845 
   48000   0.70550337    -7.350006    2.2770786 0.0039532614 0.0040266669          845 
   48100   0.73924219   -7.3528921    2.2754836 0.0039422793 0.0040246408          846 
   48200   0.74947972   -7.2894172     2.266825 0.0039191303 0.0040224321          842 
   48300   0.74092466   -7.3310452    2.2738015  0.003923053 0.0040201254          839 
   48400   0.74248987   -7.3575308    2.2659623 0.0039014502 0.0040177116          841 
   48500   0.73646276   -7.3328542    2.2607433 0.0038844386 0.0040150044          847 
   48600   0.72294075   -7.3116694    2.2501091 0.0038582116 0.0040119549          853 
   48700   0.71053251   -7.3686958    2.2819346 0.0039047478 0.0040091789          844 
   48800   0.72077269   -7.2844122    2.2917363 0.0039134841 0.0040067803          834 
   48900   0.75436665   -7.3291525    2.2967598 0.0039140419 0.0040045734          845 
   49000   0.72413503    -7.342515    2.2923342 0.0038985276 0.0040023104          844 
   49100   0.76413888   -7.3388565    2.2810362 0.0038714125 0.0039997257          844 
   49200   0.75040115   -7.3026766    2.2702817  0.003845328 0.0039968118          845 
   49300   0.72301571   -7.3751155    2.2691968 0.0038356943 0.0039936144          837 
   49400   0.72180718   -7.3206469    2.2862917 0.0038567673 0.0039904119          850 
   49500   0.73496894   -7.3358428    2.2917866 0.0038582265 0.0039873907          847 
   49600    0.6883839   -7.2961178    2.2734786 0.0038196884 0.0039842725          842 
   49700   0.75352326   -7.3423857    2.2661457 0.0037997077 0.0039807354          853 
   49800   0.72769371   -7.3044039    2.2602955 0.0037822883 0.0039770001          852 
   49900   0.70569268   -7.3155803    2.2580851 0.0037710172 0.0039730937          837 
   50000   0.76501234   -7.3236805    2.2688546 0.0037814243 0.0039691399          844 
   50100   0.71245399   -7.3339111    2.2719462  0.003779019 0.0039653825          844 
   50200   0.70556989   -7.3553373    2.2740629 0.0037750047 0.0039614342          845 
   50300   0.72047794   -7.3627221    2.2910662 0.0037956697 0.0039577151          852 
   50400   0.74837337   -7.2986549    2.2994388 0.0038019821 0.0039543678          850 
   50500   0.74390803   -7.2910468    2.3101608 0.0038121465  0.003951244          840 
   50600   0.74967989   -7.3262423    2.3077836 0.0038006975 0.0039481776          844 
   50700   0.72815104   -7.3220592    2.2983753 0.0037777372 0.0039448091          848 
   50800   0.73601665   -7.2661069    2.3025123 0.0037770871 0.0039414723          843 
   50900   0.72885868   -7.2971327    2.2865644 0.0037435566 0.0039376554          843 
   51000   0.71175888   -7.3191544    2.2680004  0.003705883 0.0039334172          847 
   51100   0.73087487   -7.3466976    2.2744974  0.003709226 0.0039290205          832 
   51200   0.75884988   -7.2958002    2.2537059  0.003668141 0.0039246202          837 
   51300   0.77279455   -7.2619703    2.2470263 0.0036501401 0.0039197153          835 
   51400    0.7206305    -7.342827    2.2480342 0.0036446728 0.0039146889          840 
   51500   0.74209409    -7.339404    2.2504804  0.003641554 0.0039097208          846 
   51600    0.7105898   -7.3637269    2.2562736 0.0036438527 0.0039046512          850 
   51700    0.7179573   -7.3176548    2.2569817  0.003637946 0.0038997618          856 
   51800   0.73098375   -7.3027583    2.2909137  0.003685511 0.0038952865          854 
   51900    0.6892937   -7.3477386    2.2947539  0.003684576 0.0038910392          861 
   52000   0.71701454   -7.3916828    2.3000751 0.0036860177 0.0038867757          862 
   52100   0.72434022   -7.3258122    2.2749216 0.0036387101 0.0038821714          860 
   52200   0.73863179   -7.3552563    2.2960798 0.0036655169 0.0038775533          852 
   52300   0.70125253   -7.3547145    2.3043807 0.0036717347 0.0038733256          858 
   52400   0.72217015    -7.376116    2.2898891 0.0036416811 0.0038688044          851 
   52500   0.75263157   -7.3668918    2.3085014 0.0036642879 0.0038644464          851 
   52600    0.7257419   -7.3791254    2.2825757 0.0036162479 0.0038600881          855 
   52700   0.77173189   -7.4257467     2.277667 0.0036016239 0.0038550923          857 
   52800    0.7397103   -7.3140583    2.2880011 0.0036111129 0.0038503962          852 
   52900   0.72504929   -7.3741046    2.3028906 0.0036277419  0.003845759          853 
   53000   0.73519312   -7.3705701    2.2988847 0.0036145986 0.0038411976          855 
   53100   0.68708575    -7.383302    2.2939933 0.0036001149 0.0038365541          855 
   53200   0.71972199   -7.3990794    2.3041752  0.003609297 0.0038319008          856 
   53300   0.73719924   -7.3674298     2.312963 0.0036162649 0.0038273201          859 
   53400   0.72852067   -7.3594165    2.3093288 0.0036038214  0.003822762          854 
   53500   0.69336273   -7.3342156    2.3165058 0.0036082645  0.003818279          852 
   53600   0.75368347   -7.3723562    2.2893903 0.0035593754 0.0038134499          855 
   53700   0.69982093   -7.3754096    2.2857664 0.0035471236 0.0038081784          850 
   53800   0.71825028   -7.3670295    2.2898682 0.0035468838 0.0038030831          856 
   53900   0.70719305   -7.4086747    2.2996171 0.0035553758 0.0037980124          855 
   54000   0.71881706   -7.3818331    2.3062073 0.0035589619 0.0037931026          856 
   54100   0.73147774    -7.331693    2.3090672 0.0035567886  0.003788451          857 
   54200   0.69325296   -7.3716469    2.3193095  0.003565974 0.0037838294          856 
   54300   0.71682814   -7.4106931    2.3154575 0.0035534952 0.0037791193          850 
   54400    0.7347431   -7.3624976    2.3203274 0.0035544231 0.0037743033          856 
   54500   0.73003338   -7.3513223    2.3158854 0.0035411091 0.0037697183          855 
   54600   0.73323374   -7.3742727    2.2839298 0.0034858514 0.0037646295          854 
   54700   0.72016045   -7.3882922    2.2787611 0.0034716043 0.0037590642          855 
   54800   0.74112772   -7.3993346    2.2844561 0.0034739296 0.0037535272          846 
   54900   0.73898135   -7.3226328    2.3007944 0.0034924018 0.0037483193          858 
   55000   0.72895039   -7.3742244    2.3084586 0.0034976645 0.0037433001          845 
   55100   0.74518264   -7.4089362    2.3269324 0.0035192565 0.0037384816          852 
   55200   0.78123657   -7.3816093    2.3389107 0.0035309641 0.0037339407          847 
   55300    0.7350076   -7.3574446    2.3190963 0.0034947202 0.0037292656          852 
   55400   0.70719523   -7.3690462    2.3120976 0.0034778844 0.0037242559          855 
   55500   0.73147115   -7.3733209    2.3039045  0.003459316 0.0037191354          856 
   55600   0.76150669   -7.3212885    2.3111632 0.0034639735 0.0037139529          857 
   55700   0.73325706   -7.3433491    2.3055713 0.0034493885 0.0037086638          853 
   55800   0.70873399   -7.3765328    2.3283337 0.0034772009 0.0037035065          851 
   55900   0.72375568   -7.3551041    2.3127089 0.0034476877 0.0036983524          850 
   56000   0.72965078   -7.3621076    2.3017203 0.0034251789 0.0036929994          859 
   56100   0.70997272   -7.3820145    2.2996747 0.0034160348 0.0036874811          856 
   56200   0.74224119   -7.4026111    2.2787341 0.0033789058 0.0036816914          849 
   56300   0.73613728   -7.3546932    2.2910916 0.0033911953 0.0036759372          839 
   56400   0.73468468   -7.4080624    2.3105658 0.0034139565 0.0036704786          845 
   56500   0.73268003   -7.4178148    2.3116503 0.0034095137 0.0036652098          852 
   56600   0.72236454   -7.3484679    2.3148205 0.0034081573 0.0036598557          852 
   56700   0.74911963   -7.3552087    2.3545652 0.0034605602 0.0036550248          848 
   56800   0.72986459   -7.3969737    2.3308788 0.0034197166 0.0036501345          853 
   56900   0.70724217   -7.4136284    2.3285245 0.0034102585 0.0036449829          849 
   57000   0.69347385   -7.3938516    2.3150277 0.0033845434 0.0036397725          849 
   57100   0.73069233   -7.3862757    2.3045353 0.0033633031 0.0036342453          852 
   57200   0.74111397   -7.3667405    2.3249458 0.0033871587 0.0036288159          855 
   57300   0.73510427   -7.3732174    2.3266867 0.0033837793 0.0036235903          846 
   57400   0.71955008   -7.4010075    2.3112522 0.0033554765 0.0036181488          850 
   57500   0.68390866   -7.3850885    2.3326985 0.0033807224 0.0036127648          851 
   57600   0.74913658   -7.4174243    2.3511968 0.0034016156 0.0036076983          849 
   57700   0.72283673   -7.3925724    2.3243083 0.0033568866 0.0036024871          847 
   57800   0.69146625   -7.3779559    2.3134868 0.0033354769  0.003597102          842 
   57900   0.72424176   -7.3724664    2.3143771 0.0033309976 0.0035916795          854 
   58000   0.73779684   -7.3883336    2.3250598 0.0033406032 0.0035862872          856 
   58100   0.75069547   -7.4346003    2.3149659 0.0033203756 0.0035808227          857 
   58200   0.74678673   -7.4315175    2.3054452 0.0033010383 0.0035751634          856 
   58300   0.77703966   -7.3645438    2.3016041 0.0032898858 0.0035694398          857 
   58400   0.75437294   -7.3960329    2.2995156 0.0032812723 0.0035637374          858 
   58500   0.73195452   -7.3644002    2.2984184 0.0032741002  0.003558065          856 
   58600   0.75275523   -7.3646447    2.3312717 0.0033152328 0.0035524878          853 
   58700   0.72841291   -7.4283317     2.333919 0.0033133433 0.0035472545          854 
   58800   0.72518677   -7.4158324    2.3218492 0.0032906026 0.0035417489          851 
   58900   0.71764472   -7.3196364     2.335028 0.0033036615 0.0035363768          858 
   59000    0.7309918   -7.3346864    2.3351826 0.0032982805 0.0035310967          857 
   59100   0.72463944   -7.4029745    2.3252526 0.0032786979 0.0035256912          858 
   59200   0.73704052   -7.4000973    2.2984501 0.0032354308 0.0035199259          855 
   59300   0.73092557   -7.3810058    2.3055747 0.0032399869 0.0035140961          850 
   59400   0.72964049   -7.4395902    2.3009973 0.0032281107 0.0035081598          853 
   59500   0.75156734   -7.4153434     2.315239 0.0032426316 0.0035023577          855 
   59600   0.71765349   -7.3532138    2.3236696 0.0032489787 0.0034967662          854 
   59700   0.72566685   -7.4535955    2.3174956 0.0032349185 0.0034911849          855 
   59800   0.72042287   -7.3315364    2.3117349 0.0032214811  0.003485443          858 
   59900   0.74235996    -7.388444    2.3234895 0.0032324561 0.0034797859          844 
   60000   0.70771289   -7.4042313    2.3217821 0.0032246974  0.003474271          850 
   60100   0.72691625    -7.415495    2.3365074 0.0032397496 0.0034687544          856 
   60200   0.71085497   -7.4003337    2.3417471 0.0032416211 0.0034633314          856 
   60300   0.72970667   -7.3503443    2.3227688 0.0032100177 0.0034578737          851 
   60400   0.75485708   -7.3348312    2.3165572  0.003196133 0.0034521943          854 
   60500   0.73778645   -7.4166682    2.3086346 0.0031799374 0.0034464802          851 
   60600   0.73737437   -7.4099359    2.3004181 0.0031633912 0.0034404926          858 
   60700   0.76640423   -7.3567492    2.3152861 0.0031785916 0.0034347489          844 
   60800   0.75308926   -7.3394681    2.3103961 0.0031666612 0.0034290791          849 
   60900   0.71182641   -7.3803391    2.3322116 0.0031913131 0.0034234659          860 
   61000   0.73066701   -7.4298045    2.3526638 0.0032140216  0.003418153          857 
   61100    0.7567393   -7.3608337    2.3322022  0.003180854 0.0034128078          856 
   61200   0.74834599   -7.3863891    2.3190391  0.003157733 0.0034072685          852 
   61300   0.72693078   -7.3912897    2.3097199 0.0031399128 0.0034014923          857 
   61400   0.73590608   -7.4069464    2.3328945 0.0031662521 0.0033958758          840 
   61500   0.74303201   -7.3921531    2.3074024 0.0031265615 0.0033901882          842 
   61600   0.70969631   -7.3974718    2.3316374 0.0031542714 0.0033844737          852 
   61700   0.71383524   -7.3787497    2.3340207  0.003152378 0.0033788852          851 
   61800    0.7268671   -7.3425438    2.3377676 0.0031523295 0.0033734317          847 
   61900   0.68283246   -7.3598215    2.3362165 0.0031451487 0.0033679341          846 
   62000   0.71399712   -7.4258875    2.3351304 0.0031386161 0.0033623272          854 
   62100   0.74261405   -7.3784329    2.3339843  0.003132024 0.0033568244          858 
   62200   0.70012385   -7.3545797    2.3197049 0.0031078575 0.0033512268          858 
   62300   0.75801154   -7.4205354    2.3131224 0.0030940642 0.0033454312          855 
   62400   0.73729638   -7.3859905    2.3109578  0.003086215  0.003339646          854 
   62500   0.71719185   -7.4169965    2.3204145  0.003093886 0.0033339779          858 
   62600   0.72223917    -7.379096    2.3343457  0.003107489 0.0033283246          858 
   62700     0.754663   -7.3567133    2.3486796 0.0031215837 0.0033229561          858 
   62800   0.74093246   -7.3848197    2.3198923 0.0030784134 0.0033174673          857 
   62900   0.73207146   -7.3781332     2.305464 0.0030544038  0.003311735          860 
   63000   0.74196873   -7.4182493    2.3035085 0.0030469689 0.0033057976          855 
   63100    0.7676567    -7.374321    2.3261862 0.0030720896 0.0033000744          853 
   63200   0.73906723   -7.4331133    2.3183563 0.0030569044 0.0032943902          859 
   63300   0.73497157   -7.3826697     2.319102 0.0030530569 0.0032886376          859 
   63400   0.74034897   -7.3663097    2.3267962 0.0030583546 0.0032829445          859 
   63500    0.7432381   -7.3695211    2.3252703 0.0030515358 0.0032772904          853 
   63600   0.72597105    -7.394245    2.3150345 0.0030333262 0.0032715713          853 
   63700   0.71782096    -7.460915    2.3376291 0.0030581228 0.0032659465          853 
   63800   0.72601756   -7.3564404    2.3159836  0.003025057 0.0032603944          855 
   63900   0.80101357    -7.426741    2.3205335 0.0030262565 0.0032547021          852 
   64000   0.75876584   -7.4367803    2.3278478 0.0030310518 0.0032491136          850 
   64100   0.71608467   -7.4032063    2.3155246 0.0030103024 0.0032433259          856 
   64200   0.70825748    -7.336742    2.3131473 0.0030025276 0.0032374903          848 
   64300   0.74162683   -7.3821737    2.3106795 0.0029946598 0.0032316895          857 
   64400   0.70443095   -7.4100311    2.3112048 0.0029906894 0.0032257624          858 
   64500   0.71383754   -7.3433683    2.3187328 0.0029957788 0.0032200485          855 
   64600   0.75797696   -7.3573748    2.3197724 0.0029924825 0.0032143901          855 
   64700   0.72809414   -7.3720939    2.2955098 0.0029566072 0.0032085325          858 
   64800   0.72608798   -7.4191398    2.3117901 0.0029729811 0.0032026869          851 
   64900    0.7186507   -7.3586916    2.3192584 0.0029779898 0.0031970248          848 
   65000   0.77764776   -7.3995452     2.327998 0.0029846128 0.0031914011          850 
   65100   0.73038571   -7.3771538     2.325091 0.0029763069 0.0031858827          853 
   65200   0.73017468   -7.3725479    2.3337154 0.0029827651 0.0031804877          852 
   65300   0.73886901   -7.3831306    2.3223055 0.0029636364 0.0031750458          850 
   65400   0.72909452   -7.3560004    2.3290834 0.0029677414 0.0031695023          854 
   65500   0.72821223   -7.4544147     2.347273 0.0029863524 0.0031641951          855 
   65600    0.7349384   -7.4245842    2.3128303 0.0029380465 0.0031585772          851 
   65700   0.74736197   -7.3679667     2.323247 0.0029467871 0.0031529089          853 
   65800   0.79109736   -7.3487366    2.3003046  0.002913253 0.0031471627          854 
   65900   0.74422587   -7.3747449    2.3034723 0.0029128379 0.0031413934          853 
   66000    0.7046357   -7.3760557    2.3091693 0.0029156178 0.0031356363          859 
   66100   0.71302922   -7.3653904    2.3328272 0.0029410327  0.003130057          854 
   66200   0.72086522   -7.4113361    2.3581677  0.002968489 0.0031246943          852 
   66300    0.6897495   -7.3726697    2.3402175 0.0029414498 0.0031194352          855 
   66400   0.73859753   -7.3535434    2.3431866 0.0029407463 0.0031141806          852 
   66500   0.74171857   -7.4167497    2.3475276 0.0029417639 0.0031088899          849 
   66600   0.72943136   -7.4101258    2.3253043 0.0029095399 0.0031035097          847 
   66700   0.74961641   -7.3986917     2.313342 0.0028902323 0.0030979013          851 
   66800    0.7503314   -7.3729942    2.3194343 0.0028935058 0.0030922945          856 
   66900   0.75344255   -7.3884135     2.308132 0.0028751021 0.0030867043          851 
   67000   0.76093836   -7.4348484    2.3216067 0.0028875705 0.0030811014          850 
   67100    0.7218119   -7.4016383    2.3304995 0.0028943113 0.0030756303          854 
   67200   0.68938457   -7.3784155    2.3383325 0.0028997179 0.0030702051          852 
   67300   0.72801241   -7.3697379    2.3437003 0.0029020558 0.0030649205          856 
   67400   0.72595508   -7.4009993    2.3371148 0.0028896078 0.0030596152          856 
   67500   0.69760553   -7.4265527    2.3363435 0.0028843747 0.0030542075          848 
   67600    0.7174462   -7.3903376    2.3415538 0.0028865308 0.0030489163          855 
   67700   0.75562255   -7.4109958    2.3296583 0.0028676247 0.0030435884          855 
   67800   0.77300493     -7.38528    2.3120339 0.0028417329 0.0030381124          857 
   67900   0.73449373   -7.3922835    2.3175654 0.0028443366 0.0030326659          852 
   68000   0.70318626   -7.4304479     2.314468 0.0028363578 0.0030270577          859 
   68100   0.75102988   -7.4138531    2.3331323 0.0028550322 0.0030215626          850 
   68200   0.72938097   -7.3482132    2.3267157 0.0028430054 0.0030161376          845 
   68300   0.71538968   -7.3948494    2.3324287 0.0028458135 0.0030108336          843 
   68400   0.73385808   -7.3993388    2.3331734 0.0028425602 0.0030055604          849 
   68500   0.73792652   -7.3827131    2.3312872 0.0028361158 0.0030002748          847 
   68600   0.69323307   -7.4000371    2.3165416 0.0028140689 0.0029948326          843 
   68700   0.72172131   -7.3779645    2.3246828 0.0028198481 0.0029894241          842 
   68800   0.75959868   -7.4087245    2.3143503 0.0028032344 0.0029839795          843 
   68900   0.70468585   -7.3501218    2.3269119 0.0028143589 0.0029785753          842 
   69000   0.76755131   -7.4070247    2.3272628 0.0028107038 0.0029732515          857 
   69100   0.73134127   -7.4377848    2.3443079 0.0028271924 0.0029680723          850 
   69200    0.7239554   -7.3911875    2.3618434 0.0028442237 0.0029630578          848 
   69300   0.73437562   -7.4251117    2.3485048 0.0028240798 0.0029580317          840 
   69400   0.69867764   -7.4184398    2.3410865 0.0028111029 0.0029528816          851 
   69500   0.70983052   -7.4381343    2.3318221 0.0027959498  0.002947706          858 
   69600   0.70504967   -7.3452134     2.331815  0.002791924 0.0029424484          855 
   69700   0.72465643   -7.4145201     2.337559 0.0027947859  0.002937234          848 
   69800   0.67151667   -7.4051357    2.3462649 0.0028011759 0.0029320922          846 
   69900   0.67876119   -7.3828732    2.3422404 0.0027923705 0.0029269646          851 
   70000    0.7407654   -7.4103943     2.341632 0.0027876571 0.0029218266          851 
   70100   0.73542951   -7.4114382    2.3406867 0.0027825567 0.0029167173          851 
   70200   0.68377057   -7.4135548    2.3294032 0.0027651984  0.002911462          849 
   70300   0.72191406   -7.4311345    2.3244987 0.0027554513 0.0029062413          856 
   70400   0.73745755   -7.4016087    2.3315613 0.0027598974 0.0029010193          852 
   70500   0.72392158   -7.3778224    2.3247436 0.0027479239 0.0028958297          850 
   70600   0.74045644   -7.3711311    2.3099034 0.0027265149 0.0028904769          857 
   70700   0.67899473   -7.3801675    2.3123267 0.0027255147 0.0028850419          853 
   70800    0.7141484   -7.4136076    2.3248604 0.0027364176 0.0028796516          859 
   70900   0.75750713   -7.3958252    2.3334173 0.0027426155 0.0028744794          857 
   71000   0.72305344   -7.3973962    2.3461573 0.0027537058 0.0028694004          851 
   71100   0.74730686   -7.4062715    2.3533184 0.0027582259 0.0028644797          850 
   71200   0.74241033   -7.3672142     2.352224 0.0027530712 0.0028595743          850 
   71300   0.74507547    -7.471485    2.3526994 0.0027497655 0.0028546327          854 
   71400   0.69330938   -7.4156196    2.3347479 0.0027249625 0.0028496548          845 
   71500   0.75971517   -7.4322285    2.3313489 0.0027171898 0.0028444756          857 
   71600   0.70506762   -7.3754414    2.3295842  0.002711341 0.0028393363          848 
   71700   0.69582167   -7.4119604    2.3238263 0.0027008674 0.0028342451          847 
   71800   0.70056246   -7.3984976    2.3131745 0.0026847429 0.0028289891          856 
   71900   0.73879543   -7.4058815    2.3354943 0.0027068779   0.00282382          852 
   72000   0.73495167   -7.4274743    2.3368726 0.0027047137 0.0028187986          850 
   72100   0.70512478   -7.4092372    2.3293848 0.0026923079 0.0028137203          852 
   72200   0.74492454   -7.4400867    2.3347604 0.0026947835 0.0028087109          855 
   72300   0.73071719   -7.4371712    2.3436991 0.0027013591 0.0028037232          854 
   72400   0.71605448   -7.4803214    2.3424389 0.0026961774 0.0027987325          849 
   72500   0.73466198   -7.4253974    2.3272567 0.0026750076 0.0027937644          853 
   72600   0.76243543   -7.4449239    2.3421723 0.0026884438 0.0027887671          853 
   72700   0.74382856   -7.4444491    2.3537158 0.0026979778 0.0027839653          850 
   72800   0.71750186   -7.4053501    2.3290439   0.00266603 0.0027790887          851 
   72900   0.75659821   -7.4218814    2.3246334 0.0026573312 0.0027741099          851 
   73000   0.73651915   -7.4278966    2.3182089 0.0026463572 0.0027690263          858 
   73100   0.75673877   -7.4187585    2.3349048 0.0026617702 0.0027639276          857 
   73200   0.70412738   -7.3893875    2.3443161  0.002668848 0.0027591075          858 
   73300    0.6955014   -7.4073996    2.3327918 0.0026521052 0.0027541828          858 
   73400   0.74209448   -7.3847704    2.3336401 0.0026494552 0.0027492681          859 
   73500   0.73490589   -7.4102184    2.3376392 0.0026503846 0.0027443706          861 
   73600   0.68916445   -7.4395475    2.3220575 0.0026291412 0.0027394071          860 
   73700    0.7421595   -7.4290316     2.314064 0.0026165354 0.0027342618          863 
   73800   0.73469922   -7.3686094     2.316616 0.0026158718 0.0027292676          859 
   73900   0.76200611   -7.3694707    2.3129715 0.0026082222 0.0027242057          860 
   74000   0.74292796   -7.4491576    2.2957224  0.002585273 0.0027190175          859 
   74100   0.72925513   -7.3904956    2.3005108 0.0025871691 0.0027137968          858 
   74200    0.7734664   -7.3943306    2.3221378 0.0026079715 0.0027087542          855 
   74300   0.75552493   -7.4148601    2.3343468 0.0026181548 0.0027039624          856 
   74400   0.71630072    -7.459216    2.3454973 0.0026271251 0.0026991546          861 
   74500   0.72065941    -7.417291    2.3364796 0.0026135119 0.0026943518          861 
   74600   0.72453763   -7.3799587    2.3433745 0.0026177106 0.0026895592          853 
   74700   0.72342676   -7.4422981    2.3342108 0.0026039835 0.0026847838          852 
   74800    0.7596371   -7.4357466     2.342769 0.0026100367 0.0026799985          849 
   74900   0.75997003   -7.3666134    2.3558007 0.0026210511 0.0026753695          852 
   75000   0.75897334   -7.3837543    2.3389529 0.0025988366 0.0026706752          850 
   75100   0.74482835   -7.4437841     2.322996 0.0025776698 0.0026658641          851 
   75200    0.7058075   -7.3938344    2.3108209 0.0025607501 0.0026609261          858 
   75300   0.75190885   -7.4071184    2.3286362 0.0025770653  0.002656069          860 
   75400   0.73389335   -7.4095554    2.3530152 0.0026005915 0.0026514393          855 
   75500   0.70125536   -7.4274173    2.3354777   0.00257779 0.0026467368          861 
   75600   0.70134915   -7.3588271    2.3317296 0.0025702487 0.0026420031          861 
   75700   0.78694195   -7.4622977    2.3436481 0.0025799737 0.0026373891          860 
   75800   0.74144079   -7.4419246    2.3223232 0.0025531257 0.0026326322          851 
   75900   0.76023394   -7.4509689    2.3235915 0.0025511545 0.0026278471          850 
   76000   0.78655158   -7.3969277    2.3360391 0.0025614464 0.0026231804          856 
   76100   0.75788732   -7.4290605    2.3518511 0.0025753954 0.0026186363          850 
   76200   0.69118409   -7.4249647    2.3391811 0.0025581596 0.0026140532          852 
   76300   0.70083102   -7.4179804    2.3410408 0.0025568379 0.0026093781          851 
   76400   0.73233578   -7.3870512    2.3478161 0.0025608814 0.0026048369          852 
   76500   0.75252386   -7.3953362    2.3374939 0.0025462896  0.002600236          851 
   76600   0.73576306   -7.4586691    2.3432931 0.0025492744 0.0025956446          857 
   76700   0.75338066   -7.4498395    2.3402612 0.0025426567 0.0025910959          855 
   76800   0.76650393   -7.3805296    2.3160332 0.0025130568 0.0025863896          858 
   76900   0.74414355   -7.4087673    2.3253525 0.0025198879 0.0025816736          858 
   77000   0.75141969   -7.4412859     2.322948  0.002514013 0.0025769984          853 
   77100    0.6658197    -7.405082    2.3310726 0.0025195337 0.0025722721          852 
   77200   0.70864721   -7.4299666    2.3425536 0.0025286631 0.0025676243          852 
   77300   0.72398416   -7.3816351     2.355901 0.0025397811 0.0025630944          846 
   77400   0.69673354   -7.3450799    2.3419755 0.0025215067  0.002558636          851 
   77500   0.74479672   -7.3972587    2.3355646 0.0025113598 0.0025542021          857 
   77600   0.72967989   -7.4683396    2.3213086 0.0024928142 0.0025495863          857 
   77700    0.7317165   -7.4069885     2.321345  0.002489645 0.0025448974          860 
   77800   0.74926132   -7.3855307    2.3096183 0.0024738842 0.0025401131          862 
   77900   0.70965824   -7.4103408    2.3186544 0.0024803749 0.0025353881          862 
   78000    0.7606372   -7.4394489    2.3253067  0.002484302 0.0025307742          859 
[...]
   82800   0.74635754    -7.450889    2.3550356 0.0023702049 0.0023240105          860 
   82900   0.70924671   -7.4176217    2.3461207 0.0023583843 0.0023200526          855 
   83000    0.7186299   -7.3762833    2.3358332 0.0023452141 0.0023160348          856 
   83100    0.6999409   -7.4276126     2.351934 0.0023585379 0.0023120255          856 
   83200   0.71420215   -7.4512998    2.3323413  0.002336079 0.0023079708          860 
   83300   0.73105993   -7.3619349     2.323641 0.0023245708 0.0023038465          859 
   83400   0.74821402   -7.4128294    2.3185836 0.0023167302  0.002299726          860 
   83500   0.72175707   -7.4182967    2.3122669 0.0023076516 0.0022955366          861 
   83600   0.67074398   -7.4463884    2.3263779 0.0023189573 0.0022913967          859 
   83700   0.71693074   -7.4491141    2.3358256  0.002325593 0.0022873239          859 
   83800   0.72157712   -7.4085192    2.3438255 0.0023307732 0.0022833126          857 
   83900   0.69325357   -7.4373552     2.344125 0.0023282926 0.0022793454          860 
   84000    0.7332444   -7.4578058    2.3516269 0.0023329631 0.0022754305          862 
   84100   0.76208698   -7.3996311    2.3503446 0.0023289186 0.0022715476          859 
   84200    0.7110159   -7.3885664     2.348859 0.0023246823 0.0022677306          854 
   84300   0.73827739    -7.424581    2.3504486  0.002323496 0.0022638712          858 
   84400   0.66631869   -7.3713249    2.3376019 0.0023080587 0.0022600071          855 
   84500   0.75915707    -7.455488    2.3337101 0.0023014892 0.0022561057          855 
   84600   0.75616152   -7.4030474    2.3314797 0.0022965718 0.0022521633          857 
   84700   0.73572436   -7.4363804    2.3416849 0.0023039009 0.0022482645          863 
   84800   0.72729339   -7.3976418    2.3236483 0.0022834594 0.0022443271          853 
   84900   0.75352216   -7.4240797    2.3327678  0.002289721 0.0022404059          850 
   85000   0.73595256   -7.4271518    2.3334797 0.0022877252 0.0022364615          857 
   85100   0.73997254   -7.4647671      2.31982 0.0022716608 0.0022325128          857 
   85200   0.73510171   -7.4234468    2.3149757 0.0022642563 0.0022285332          856 
   85300   0.75444677   -7.4077686    2.3170242 0.0022636032 0.0022245053          855 
   85400   0.70469944   -7.4071095    2.3382292 0.0022816444 0.0022206233          853 
   85500   0.69175178   -7.4165713    2.3406988 0.0022813829 0.0022168016          858 
   85600   0.72986139   -7.4505971    2.3579756  0.002295537  0.002212992          854 
   85700   0.69636235   -7.4105966    2.3216392 0.0022575254 0.0022091085          860 
   85800   0.73293174   -7.3762744    2.3418031 0.0022744785  0.002205296          853 
   85900    0.7498473   -7.4292446     2.341029 0.0022710797 0.0022015309          856 
   86000   0.76115762    -7.474513    2.3358608  0.002263431 0.0021977222          857 
   86100   0.74435223   -7.4309323    2.3406651 0.0022654521 0.0021939446          854 
   86200   0.73844168   -7.3623849    2.3042677  0.002227637 0.0021900407          856 
   86300   0.71088181   -7.4438147    2.3177855 0.0022381088 0.0021860807          855 
   86400   0.70944612    -7.425184    2.3336299 0.0022508005 0.0021822062          856 
   86500   0.73816168   -7.3888279    2.3489072 0.0022629164 0.0021784462          859 
   86600   0.72183957   -7.4188515    2.3304898 0.0022425807 0.0021746961          851 
   86700   0.73545225   -7.3883949    2.3256237 0.0022353169 0.0021709097          854 
   86800   0.73284231   -7.4133805    2.3443423 0.0022507126 0.0021672166          858 
   86900   0.74164925   -7.4507786    2.3327248  0.002236982 0.0021635334          860 
   87000   0.74267696   -7.3833496    2.3295295 0.0022313501  0.002159739          861 
   87100   0.72458428   -7.4320599    2.3198453 0.0022195229 0.0021559268          853 
   87200   0.69382165   -7.3876574     2.325559 0.0022224379 0.0021521146          857 
   87300   0.71610066   -7.3828551    2.3252573 0.0022196041 0.0021483272          858 
   87400   0.71651398   -7.4252163    2.3398618 0.0022309895 0.0021445901          852 
   87500   0.75140083   -7.4115933     2.324313 0.0022136314 0.0021408547          861 
   87600   0.73692104   -7.3969996    2.3384156 0.0022245202 0.0021371519          847 
   87700   0.75134586   -7.4805112    2.3502582 0.0022332366 0.0021335674          857 
   87800   0.74305669   -7.4009306    2.3500597 0.0022305046 0.0021300402          846 
   87900   0.75738898    -7.382376    2.3562627 0.0022338479 0.0021265567          855 
   88000   0.73057966   -7.4364804    2.3455082 0.0022211252  0.002123029          860 
   88100   0.69362835   -7.4316824    2.3192869 0.0021938014 0.0021193397          856 
   88200   0.71226725   -7.4061024    2.3349352  0.002206099 0.0021156101          852 
   88300   0.73699215   -7.4391252     2.340891 0.0022092214 0.0021119927          853 
   88400   0.74711789   -7.4191197    2.3289381 0.0021954545 0.0021083835          853 
   88500    0.7700939   -7.3915932    2.3363469   0.00219995 0.0021047846          852 
   88600   0.70037789   -7.3762684    2.3362668 0.0021973916 0.0021011899          855 
   88700   0.72522053   -7.4388415    2.3409108 0.0021992773  0.002097544          854 
   88800   0.71098258   -7.3834241    2.3270233 0.0021837681 0.0020939614          849 
   88900   0.74493707   -7.4163366    2.3282991 0.0021825076 0.0020903227          854 
   89000   0.75076757   -7.3940669     2.350575 0.0022009129 0.0020867932          855 
   89100   0.72566168   -7.4378882    2.3283752 0.0021776797 0.0020831797          853 
   89200   0.73529174     -7.40479    2.3325348 0.0021791244 0.0020796063          850 
   89300   0.69707099   -7.4054421    2.3394612 0.0021831478 0.0020760637          856 
   89400   0.71555465   -7.4594408     2.339719 0.0021809461  0.002072496          861 
   89500   0.73718375   -7.4075882    2.3289264 0.0021684604 0.0020689669          856 
   89600   0.75237387   -7.4446402      2.32816 0.0021653273 0.0020653322          850 
   89700   0.70912143   -7.4449934    2.3198085 0.0021551547 0.0020617696          856 
   89800   0.74993503   -7.4278148    2.3139038 0.0021472752 0.0020581245          856 
   89900   0.73714858   -7.3839276    2.3363005 0.0021656474 0.0020545616          857 
   90000   0.73079518   -7.4418368    2.3399609 0.0021666304 0.0020511515          855 
   90100    0.7031421   -7.4222983    2.3264601 0.0021517389 0.0020476292          852 
   90200   0.75106278   -7.4402879    2.3232322 0.0021463712 0.0020440662          846 
   90300    0.7318931   -7.4308509     2.334585 0.0021544712 0.0020405429          851 
   90400   0.72701514   -7.4369339    2.3408608 0.0021578731 0.0020371289          852 
   90500   0.75509516   -7.3910117    2.3421167 0.0021566452 0.0020336902          851 
   90600   0.72948663   -7.3985632    2.3572983 0.0021682287 0.0020303641          851 
   90700   0.74266738   -7.4781423       2.3357 0.0021459941 0.0020269995          853 
   90800   0.71954415   -7.4349055    2.3413657 0.0021488305 0.0020235318          849 
   90900   0.72607137   -7.4000729    2.3447471 0.0021495665 0.0020202028          851 
   91000   0.70884842   -7.4068689    2.3134396 0.0021185344 0.0020166908          847 
   91100   0.71902715   -7.4537994    2.3208648 0.0021230011 0.0020131457          850 
   91200   0.75078923   -7.4043948    2.3238667 0.0021234162 0.0020096664          857 
   91300   0.72965149   -7.3741118     2.319231 0.0021168593 0.0020062087          851 
   91400   0.71838975   -7.4105937     2.341703 0.0021350319 0.0020027654          852 
   91500   0.68852327   -7.4124446    2.3546673 0.0021445057 0.0019994413          848 
   91600   0.72772407   -7.3762073    2.3430295 0.0021315771 0.0019961014          854 
   91700   0.71821967   -7.4060271     2.346888  0.002132759 0.0019928177          848 
   91800   0.71774215   -7.4391667    2.3529635 0.0021359508 0.0019895225          851 
   91900   0.74388646   -7.4211935    2.3375921 0.0021196881 0.0019862193          857 
   92000   0.77887631   -7.3826087    2.3148525 0.0020967867 0.0019828734          851 
   92100   0.75386055   -7.4638222    2.3111445  0.002091155 0.0019793997          850 
   92200   0.73207641   -7.4573103    2.3175507  0.002094677 0.0019759126          854 
   92300   0.73927505   -7.3683671     2.341805 0.0021143057 0.0019725886          851 
   92400   0.74355168   -7.4153013    2.3374928 0.0021081284 0.0019692955          853 
   92500   0.72521007   -7.4239358    2.3242653 0.0020939327 0.0019659726          855 
   92600   0.73989053   -7.3748163    2.3382587 0.0021042645  0.001962648          849 
   92700   0.74275821   -7.3975123    2.3341829 0.0020983305 0.0019593939          850 
   92800   0.74243931   -7.4370332    2.3145095 0.0020784029 0.0019560404          853 
   92900   0.74588624   -7.4160813    2.3325645 0.0020923614 0.0019527079          854 
   93000   0.77523082   -7.3979439    2.3283673 0.0020863506 0.0019493905          859 
   93100   0.71252535   -7.4099078    2.3396117 0.0020941745 0.0019461593          858 
   93200   0.72342132    -7.457037    2.3278254 0.0020813889 0.0019428631          858 
   93300   0.73985317   -7.4529669    2.3261608 0.0020776713 0.0019395287          857 
   93400   0.73446862   -7.3576456    2.3392721  0.002087145 0.0019362825          850 
   93500   0.76200336   -7.3982021    2.3370426 0.0020829257 0.0019331447          856 
   93600   0.69656139   -7.4282822    2.3323711 0.0020765412 0.0019299277          861 
   93700   0.74095513   -7.4192799    2.3318232 0.0020738378  0.001926664          855 
   93800   0.71876534   -7.3816406    2.3520952 0.0020896368 0.0019234726          852 
   93900   0.73245664   -7.4367815    2.3329601 0.0020704296 0.0019203047          857 
   94000   0.71314548   -7.4216924    2.3254082 0.0020615321 0.0019170877          862 
   94100   0.73122674   -7.3910698    2.3246112 0.0020586354 0.0019138612          859 
   94200   0.71274656   -7.4064789     2.348888 0.0020779264 0.0019106856          859 
   94300   0.75960566   -7.4283975    2.3393048 0.0020672542 0.0019075353          859 
   94400   0.74456203   -7.3892787    2.3305459 0.0020573321 0.0019043414          860 
   94500    0.7249184   -7.4421575    2.3193927 0.0020453198 0.0019011101          860 
   94600   0.73447987   -7.3974336    2.3277239 0.0020504968 0.0018978978          860 
   94700   0.75899002   -7.4022168    2.3393342 0.0020585482 0.0018947302          855 
   94800   0.71254824   -7.3832715    2.3377716 0.0020550032 0.0018916298          859 
   94900   0.72980487   -7.4310196    2.3273764 0.0020437095 0.0018884583          860 
   95000   0.71357606   -7.4219134    2.3252491 0.0020396922 0.0018852525          861 
   95100   0.71173011   -7.3574837    2.3185603 0.0020316862 0.0018820518          859 
   95200   0.71477097   -7.3878722    2.3306759 0.0020401575 0.0018788523          859 
   95300   0.76603594   -7.4618695    2.3382837 0.0020446692 0.0018757716          858 
   95400   0.71871494   -7.3853499    2.3257718 0.0020315966 0.0018726372          853 
   95500   0.76119977   -7.4176574    2.3280224 0.0020314331 0.0018695608          855 
   95600   0.77640669    -7.404427     2.334569 0.0020350148 0.0018664755          858 
   95700   0.72882943   -7.4222883    2.3267414 0.0020260722  0.001863375          854 
   95800   0.69822024   -7.4286041    2.3356937 0.0020317447 0.0018602812          852 
   95900   0.71266661   -7.4081591     2.325899 0.0020211149 0.0018571569          853 
   96000   0.73517227   -7.3611241    2.3508653 0.0020406816 0.0018541041          855 
   96100    0.7513094   -7.4146494    2.3401564  0.002029272  0.001851114          854 
   96200   0.73191177    -7.409778    2.3406982 0.0020276318 0.0018481089          854 
   96300   0.76367369   -7.4274952    2.3278745 0.0020144293 0.0018451081          854 
   96400   0.73874763   -7.4096087    2.3155077 0.0020016491 0.0018419953          859 
   96500   0.71821546   -7.4381927    2.3187553 0.0020023794 0.0018388502          860 
   96600   0.72876276   -7.3991057    2.3287196 0.0020089024 0.0018357542          860 
   96700   0.74104124    -7.347178    2.3214509 0.0020005609 0.0018327265          856 
   96800   0.75425504   -7.3861247     2.329822 0.0020057007 0.0018296891          857 
   96900   0.71847018    -7.433744    2.3219964 0.0019969009 0.0018266331          859 
   97000   0.72657644   -7.4505676    2.3369749 0.0020077104 0.0018235817          861 
   97100   0.69264852   -7.3723272    2.3538719 0.0020201441 0.0018206795          860 
   97200   0.76616462   -7.4026836    2.3188217 0.0019880159 0.0018177229          861 
   97300   0.71838517   -7.4177738     2.319465 0.0019865237 0.0018146653          855 
   97400   0.73367545   -7.4235892    2.3302065 0.0019936743  0.001811615          860 
   97500   0.74900293   -7.4206954    2.3376452 0.0019979874 0.0018086419          857 
   97600   0.70773102   -7.3978208    2.3312793 0.0019905048 0.0018056787          859 
   97700   0.75201987   -7.4177501    2.3282665 0.0019858977 0.0018026936          859 
   97800   0.77064634   -7.3917356    2.3519721 0.0020040662 0.0017998087          859 
   97900   0.74786162   -7.4527554    2.3354272 0.0019879359 0.0017969371          862 
   98000    0.7352153   -7.4418081    2.3460937 0.0019949776 0.0017940379          860 
   98100   0.75994071    -7.414045     2.346502 0.0019932908 0.0017911735          858 
   98200   0.73383556   -7.3975049    2.3284749 0.0019759631 0.0017882526          861 
   98300   0.74155513   -7.3931329    2.3267023 0.0019724502 0.0017853286          858 
   98400   0.68693142   -7.4170587    2.3139062 0.0019596089 0.0017823718          858 
   98500   0.70720908   -7.3833396     2.327151 0.0019688248 0.0017794272          862 
   98600   0.71921538   -7.4288304    2.3471429 0.0019837246 0.0017765257          857 
   98700   0.71587896   -7.4454747    2.3471108 0.0019816876 0.0017737004          857 
   98800   0.70757415   -7.3808275    2.3304355  0.001965617 0.0017708486          861 
   98900   0.72055397   -7.3754524    2.3390583 0.0019708951 0.0017679706          853 
   99000   0.72666624   -7.4083951    2.3342239 0.0019648349 0.0017651411          854 
   99100   0.73925731     -7.46699     2.332464 0.0019613724 0.0017622419          863 
   99200    0.7261752   -7.4414051    2.3246704 0.0019528481  0.001759369          858 
   99300   0.76377504   -7.4122507    2.3433869 0.0019665886  0.001756541          858 
   99400   0.74344965    -7.415002    2.3335048 0.0019563253 0.0017537199          856 
   99500   0.71756854    -7.411954    2.3354614 0.0019559978 0.0017509412          857 
   99600   0.75082304   -7.4585375    2.3291178 0.0019487264 0.0017480784          860 
   99700   0.73159955   -7.4124401    2.3294486 0.0019470483 0.0017452126          855 
   99800   0.74178815   -7.4220757    2.3221939 0.0019390397 0.0017423806          856 
   99900    0.7170329   -7.4047545    2.3214112 0.0019364457  0.001739482          854 
  100000   0.72246001    -7.431783    2.3432415 0.0019527013 0.0017366444          860 
  100100   0.70194411   -7.4477408    2.3504938 0.0019567881 0.0017339136          854 
  100200   0.71560365   -7.3797294     2.336253 0.0019429915 0.0017311299          855 
  100300   0.75090368   -7.4133183    2.3231639 0.0019301794  0.001728319          848 
  100400   0.75246971   -7.4676472    2.3141173 0.0019207481 0.0017254564          851 
  100500   0.70205046    -7.386502    2.3159363 0.0019203452 0.0017226448          860 
  100600   0.77182826   -7.4372492     2.315376 0.0019179721 0.0017197881          860 
  100700   0.73373408   -7.4451982    2.3196288 0.0019195869 0.0017169325          858 
  100800   0.68240718   -7.3876077    2.3216692 0.0019193694 0.0017140941          858 
  100900   0.76666164   -7.4562216    2.3243337 0.0019196678 0.0017112607          860 
  101000   0.74879233   -7.4485141    2.3230027 0.0019166689 0.0017084858          859 
  101100   0.73037717   -7.4189306    2.3190033 0.0019114765 0.0017056578          855 
  101200    0.6976373   -7.4494816    2.3256983 0.0019151007 0.0017028585          850 
  101300   0.73481522   -7.4681708    2.3476653 0.0019312811 0.0017001626          851 
  101400   0.74938316   -7.3952989    2.3357547  0.001919588  0.001697484          854 
  101500   0.73571116   -7.3979127    2.3567352 0.0019349222 0.0016948434          856 
  101600   0.71962431   -7.4520472    2.3571106 0.0019333256  0.001692241          859 
  101700   0.72407572   -7.4382201     2.339808 0.0019172468 0.0016896314          859 
  101800    0.7521356   -7.4347476    2.3204817  0.001899543  0.001686922          853 
  101900   0.68800737   -7.4103757    2.3113896 0.0018902434 0.0016841249          857 
  102000   0.73331228   -7.4450711     2.307914 0.0018855507 0.0016812843          855 
  102100   0.72048722    -7.416719    2.2999049 0.0018771669 0.0016784616          857 
  102200   0.76269536   -7.4291491    2.3059389 0.0018802502 0.0016756296          858 
  102300   0.72930553   -7.3966837    2.3271351 0.0018956786 0.0016729031          860 
  102400    0.7388336   -7.4710363    2.3287618 0.0018951512 0.0016702239          856 
  102500   0.73386001   -7.3826236    2.3377304 0.0019005938 0.0016676066          848 
  102600   0.72581919   -7.4389721    2.3436372  0.001903539 0.0016649877          857 
  102700    0.7013916    -7.451741    2.3379622 0.0018970807 0.0016623835          857 
  102800   0.73262183    -7.395878    2.3100784 0.0018726316 0.0016597148          860 
  102900    0.7469305   -7.4075987    2.3125064 0.0018727781 0.0016570074          860 
  103000   0.76648787   -7.3901932    2.3190871  0.001876284  0.001654317          859 
  103100   0.75596537   -7.4402618     2.310696 0.0018676819 0.0016516051          855 
  103200   0.74394627   -7.4735812    2.3252454 0.0018776206 0.0016489278          862 
  103300   0.72091636   -7.4153612    2.3337047 0.0018826272  0.001646268          861 
  103400   0.74357049   -7.3599081    2.3346115 0.0018815373 0.0016436884          863 
  103500   0.72397471   -7.3877454    2.3186724  0.001866886 0.0016410714          862 
  103600   0.71496816   -7.3995505    2.3292311 0.0018735771 0.0016384568          862 
  103700   0.72693321   -7.3632987    2.3294882  0.001871977 0.0016358512          861 
  103800   0.72289244   -7.4240505    2.3281607 0.0018691078  0.001633235          860 
  103900   0.74285999   -7.4317519     2.324572 0.0018644305 0.0016306197          859 
  104000   0.69638515   -7.4071802    2.3378112 0.0018732462 0.0016280463          861 
Loop time of 195.923 on 12 procs for 100000 steps with 864 atoms

Performance: 88197.980 tau/day, 510.405 timesteps/s
99.4% CPU use with 12 MPI tasks x no OpenMP threads

MPI task timing breakdown:
Section |  min time  |  avg time  |  max time  |%varavg| %total
---------------------------------------------------------------
Pair    | 9.9977     | 10.932     | 11.731     |  18.9 |  5.58
Neigh   | 1.0383     | 1.0853     | 1.1278     |   2.9 |  0.55
Comm    | 7.751      | 8.8059     | 9.9674     |  25.3 |  4.49
Output  | 2.5133     | 2.5146     | 2.5221     |   0.1 |  1.28
Modify  | 170.11     | 170.56     | 171.12     |   2.5 | 87.05
Other   |            | 2.029      |            |       |  1.04

Nlocal:        72.0000 ave          78 max          66 min
Histogram: 2 1 1 2 0 1 1 0 2 2
Nghost:        1649.75 ave        1689 max        1613 min
Histogram: 3 2 1 0 0 0 0 1 4 1
Neighs:        8762.17 ave       10053 max        7491 min
Histogram: 1 1 0 2 3 2 1 0 0 2
FullNghs:      17526.0 ave       19075 max       15996 min
Histogram: 2 1 1 2 0 1 1 0 2 2

Total # of neighbors = 210312
Ave neighs/atom = 243.41667
Neighbor list builds = 4753
Dangerous builds = 0

#clear
#
#next RN
#
#jump SELF



Total wall time: 0:03:16
