
units lj                  # Use reduced LJ style units
atom_style atomic         # Uncharged point particles
atom_modify map hash      # Needed for indexing of clusters etc
                          # Used to be able to find where atoms are in relation to each other.

# Define a lattice with which to populate the simulation cell. With units
# set to 'lj' the second argument to the lattice command is the reduced
# density rho* and the spacings are multiples of that required to acheive
# that density. Also define a simulation cell called 'box' in lattice units
# and fill it with atoms. Here we're creating a box which is ten lattice
# constants in each direction.
lattice fcc 1.0 spacing 1 1 1                 # All equal sizes - gives the right reduced density.
Lattice spacing in x,y,z = 1.5874011 1.5874011 1.5874011

region box block 0 6 0 6 0 6 units lattice # Defines a region, "box", in lattice units
create_box 1 box                              # Creates a simulation box as specified above,
Created orthogonal box = (0.0000000 0.0000000 0.0000000) to (9.5244063 9.5244063 9.5244063)
  2 by 2 by 3 MPI processor grid
                                              # with one type of atom
create_atoms 1 box                            # Creates particles on lattice points
Created 864 atoms
  using lattice units in orthogonal box = (0.0000000 0.0000000 0.0000000) to (9.5244063 9.5244063 9.5244063)
  create_atoms CPU = 0.001 seconds


# Set the mass of the first (and only) atom type.
mass 1 1.0

# Lennard-Jones interactions between particles, 3.5 sigma cut-off. Apply
# long range tail corrections to energy and pressure and set all coefficients
# to unity since we work in reduced units here. Note that this doesn't shift
# the potential such that it goes to zero at the cutoff. That would require
# pair_modify('shift', 'yes').
pair_style lj/cut  3.5      # non-GPU version
pair_modify tail  yes
pair_coeff 1  1  1.0  1.0   # Intearaction between 1 and 1 set with epsilon = 1 and sigma = 1

write_data data.*
System init for write_data ...
Neighbor list info ...
  update every 1 steps, delay 10 steps, check yes
  max neighbors/atom: 2000, page size: 100000
  master list distance cutoff = 3.8
  ghost atom cutoff = 3.8
  binsize = 1.9, bins = 6 6 6
  1 neighbor lists, perpetual/occasional/extra = 1 0 0
  (1) pair lj/cut, perpetual
      attributes: half, newton on
      pair build: half/bin/atomonly/newton
      stencil: half/bin/3d
      bin: standard

#############################
#   M E L T   S Y S T E M   #
#############################

velocity all create 2.4 2750902 mom yes dist gaussian # Assign velocities
                                                    # Temperature 2.4, random number seed, zero linear momentum
						                                                        # Gaussian distribution

timestep 0.002   # simulation timestep
thermo 100       # output thermodynamic data every 100 steps

# Define a fix  in this case with index 1 applied to all
# particles in the simulation. This fix is for simulations
# in the anisotropic NPT ensemble. Note that we use the MTK
# correction.
fix 1 all npt temp 2.4 2.4 0.1 iso 5.68 5.68 0.5 mtk yes tchain 5 pchain 5 # Use NPT ensemble
                                                                         # Set temperature and pressure and damping
                                                                         # Numbers of thermostats in chain and in barostat
run 1000         # run for 10000 steps
Per MPI rank memory allocation (min/avg/max) = 3.633 | 3.633 | 3.634 Mbytes
Step Temp E_pair E_mol TotEng Press Volume 
       0          2.4   -8.3859253            0    -4.790092     -2.24275          864 
     100    1.3007594   -6.4407842            0   -4.4919034    5.3582762    891.69205 
     200    1.5828213   -6.0796178            0   -3.7081338    6.4338598    907.46239 
     300    1.7629056     -5.73851            0   -3.0972122    5.5953229    954.02439 
     400    1.8733232   -5.2785237            0   -2.4717912    6.0585808    994.36537 
     500      2.02574   -4.9360708            0   -1.9009777    5.7478153    1042.8978 
     600    2.2112838   -4.6895875            0   -1.3765009    5.7138268    1079.0368 
     700    2.3146746   -4.4629638            0  -0.99497044    5.6088298    1118.0222 
     800    2.4734008     -4.39503            0   -0.6892229    5.7937797    1123.7282 
     900    2.4206618   -4.2767239            0  -0.64993368    5.5531987    1146.9555 
    1000    2.3618098   -4.2459295            0  -0.70731524    5.7000582    1143.3852 
Loop time of 0.210827 on 12 procs for 1000 steps with 864 atoms

Performance: 819629.586 tau/day, 4743.227 timesteps/s
99.7% CPU use with 12 MPI tasks x no OpenMP threads

MPI task timing breakdown:
Section |  min time  |  avg time  |  max time  |%varavg| %total
---------------------------------------------------------------
Pair    | 0.070749   | 0.087686   | 0.10759    |   4.7 | 41.59
Neigh   | 0.012143   | 0.014322   | 0.016914   |   1.5 |  6.79
Comm    | 0.066516   | 0.089743   | 0.10958    |   5.4 | 42.57
Output  | 0.00021558 | 0.00022587 | 0.00028904 |   0.0 |  0.11
Modify  | 0.016384   | 0.017076   | 0.017672   |   0.3 |  8.10
Other   |            | 0.001773   |            |       |  0.84

Nlocal:        72.0000 ave          80 max          66 min
Histogram: 2 1 2 2 1 0 2 0 0 2
Nghost:        1314.75 ave        1327 max        1295 min
Histogram: 1 0 0 2 3 0 0 1 2 3
Neighs:        6211.67 ave        7136 max        5326 min
Histogram: 2 0 0 2 1 4 1 0 0 2

Total # of neighbors = 74540
Ave neighs/atom = 86.273148
Neighbor list builds = 80
Dangerous builds = 2

# Equilibrate just above the melting temperature to avoid step fn in T

fix 1 all npt temp 1.25 1.25 0.1 iso 5.68 5.68 0.5 mtk yes tchain 5 pchain 5
run 1000
Per MPI rank memory allocation (min/avg/max) = 3.634 | 3.634 | 3.634 Mbytes
Step Temp E_pair E_mol TotEng Press Volume 
    1000    2.3618098   -4.2459295            0  -0.70731524    5.7000582    1143.3852 
    1100    1.8617945   -4.5967525            0    -1.807293    5.9593679    1083.5566 
    1200      1.66126   -5.0091582            0   -2.5201524    5.9308167    1028.0056 
    1300    1.4533368   -5.3154554            0   -3.1379734    5.5185254    997.93023 
    1400    1.3100587   -5.5224566            0    -3.559643    5.2858775     978.0358 
    1500    1.3306301   -5.7450087            0   -3.7513736    5.2687861    956.68836 
    1600    1.2302857    -5.777427            0   -3.9341343     5.385203    950.58576 
    1700    1.2545134   -5.8251615            0   -3.9455694    5.6370291    940.07281 
    1800    1.2669685   -5.8434457            0   -3.9451925    6.1076728    931.13358 
    1900    1.2975362   -5.8185374            0   -3.8744858    5.5765884    942.23221 
    2000    1.2225624   -5.8503078            0   -4.0185867    5.1330896    948.19804 
Loop time of 0.162834 on 12 procs for 1000 steps with 864 atoms

Performance: 1061206.546 tau/day, 6141.242 timesteps/s
99.9% CPU use with 12 MPI tasks x no OpenMP threads

MPI task timing breakdown:
Section |  min time  |  avg time  |  max time  |%varavg| %total
---------------------------------------------------------------
Pair    | 0.069277   | 0.076049   | 0.089061   |   1.9 | 46.70
Neigh   | 0.0096955  | 0.010414   | 0.011644   |   0.5 |  6.40
Comm    | 0.045326   | 0.059687   | 0.066839   |   2.4 | 36.66
Output  | 0.00018266 | 0.00018772 | 0.00022071 |   0.0 |  0.12
Modify  | 0.014212   | 0.01461    | 0.014989   |   0.2 |  8.97
Other   |            | 0.001886   |            |       |  1.16

Nlocal:        72.0000 ave          79 max          65 min
Histogram: 1 1 0 4 0 1 1 3 0 1
Nghost:        1466.08 ave        1476 max        1447 min
Histogram: 1 1 0 0 2 0 0 4 1 3
Neighs:        7466.67 ave        8131 max        6694 min
Histogram: 1 0 2 0 3 1 3 0 0 2

Total # of neighbors = 89600
Ave neighs/atom = 103.70370
Neighbor list builds = 67
Dangerous builds = 0


# Small amount of linear quench

fix 1 all npt temp 1.25 ${temp} 0.1 iso 5.68 5.68 0.5 mtk yes tchain 5 pchain 5
fix 1 all npt temp 1.25 0.93 0.1 iso 5.68 5.68 0.5 mtk yes tchain 5 pchain 5
run 2000
Per MPI rank memory allocation (min/avg/max) = 3.634 | 3.634 | 3.634 Mbytes
Step Temp E_pair E_mol TotEng Press Volume 
    2000    1.2225624   -5.8503078            0   -4.0185867    5.1330896    948.19804 
    2100    1.2566025   -5.8604917            0   -3.9777694    5.4211761    941.49071 
    2200    1.2314982   -5.9038482            0    -4.058739    5.8329504    929.22846 
    2300    1.1957066   -5.9068822            0   -4.1153982    6.3003525    920.65531 
    2400    1.1931673   -5.9521893            0   -4.1645099    5.9477597    922.56084 
    2500    1.1512651   -5.9504759            0   -4.2255769    5.6600169    925.71792 
    2600    1.1188728   -5.9909464            0   -4.3145797    5.6618562    921.89829 
    2700    1.1177169   -5.9849036            0   -4.3102686    5.6678028    922.20174 
    2800    1.1021151   -6.0576728            0   -4.4064135    5.7364887    915.95528 
    2900    1.1008579   -6.0360048            0   -4.3866291      5.86363     914.7382 
    3000    1.0911215   -6.0692241            0   -4.4344361    6.0435807    909.74477 
    3100    1.1246617   -6.1429779            0   -4.4579379    5.9010135    904.83746 
    3200    1.0218725   -6.1320691            0   -4.6010345    5.7012741    908.97679 
    3300   0.98587782   -6.1259924            0   -4.6488873    5.6467841    909.37182 
    3400    1.0603579   -6.1316338            0   -4.5429379    5.9949841    904.77281 
    3500     1.019598   -6.1189792            0   -4.5913524    6.4431268    898.48562 
    3600   0.98644181   -6.1300445            0   -4.6520944    6.5984271    893.40383 
    3700   0.97946152   -6.2131346            0   -4.7456428    5.8970044    897.65839 
    3800   0.95816742   -6.2830112            0   -4.8474235    5.4956417    897.46181 
    3900   0.95722273   -6.3866179            0   -4.9524457    5.2399603    894.15454 
    4000   0.91125189   -6.3771073            0   -5.0118115    5.4962991    890.61841 
Loop time of 0.348967 on 12 procs for 2000 steps with 864 atoms

Performance: 990351.471 tau/day, 5731.201 timesteps/s
99.9% CPU use with 12 MPI tasks x no OpenMP threads

MPI task timing breakdown:
Section |  min time  |  avg time  |  max time  |%varavg| %total
---------------------------------------------------------------
Pair    | 0.15478    | 0.16665    | 0.18702    |   2.1 | 47.75
Neigh   | 0.017968   | 0.018866   | 0.020814   |   0.6 |  5.41
Comm    | 0.10703    | 0.12962    | 0.14167    |   2.6 | 37.14
Output  | 0.00037648 | 0.0003882  | 0.00046854 |   0.0 |  0.11
Modify  | 0.028623   | 0.029238   | 0.029836   |   0.2 |  8.38
Other   |            | 0.004207   |            |       |  1.21

Nlocal:        72.0000 ave          77 max          66 min
Histogram: 1 2 2 0 0 1 1 1 1 3
Nghost:        1546.42 ave        1562 max        1529 min
Histogram: 2 0 2 0 1 2 1 1 0 3
Neighs:        8005.58 ave        9206 max        7343 min
Histogram: 2 3 0 4 0 1 0 1 0 1

Total # of neighbors = 96067
Ave neighs/atom = 111.18866
Neighbor list builds = 117
Dangerous builds = 0

#############################
# F R E E Z E  S Y S T E M  #
#############################

# Define solid atoms. This closely follows ten Wolde  Ruiz-Montero and Frenkel  Faraday Discuss  1996  104  93-110
# Compute components of the per-atom q6 vector
compute q6 all orientorder/atom degrees 1 6 components 6 nnn NULL cutoff 1.3 # compute the Q6 parameter.
                                                                             # Use all neighbours within 1.3 unit cell.

# get number of connections
compute coord_number all coord/atom orientorder q6 0.5

# An atom is solid if it has 8 or more connections (of a possible 14)
variable is_solid atom c_coord_number>=8
group solid dynamic all var is_solid    # Must be dynamic to update
dynamic group solid defined

# do clustering
compute cluster solid cluster/atom 1.3 # Create a cluster where all atoms within are solid and max 1.3 units from another member

# define chunks one chunk per cluster
compute clus_chunks solid chunk/atom c_cluster nchunk every compress yes  # Says which atoms are in which chunk

# count the size of each chunk
compute size_chunks solid property/chunk clus_chunks count


# Find the maximum entry in the vector of chunk sizes
variable max_n equal max(c_size_chunks)


# Thermo style which includes this variable
# thermo_style custom step temp pe vol v_max_n

thermo ${N}  # Print the thermo information every 100 steps
thermo 100  

# Reset the npt fix at a lower temperature (below freezing)

compute myRDF all rdf 100
fix 2 all ave/time 1 50 100 c_myRDF[*] file pcf.rdf mode vector


compute msd all msd com yes
variable twopoint equal c_msd[4]/6/(step*dt+1.0e-6)
fix 9 all vector 10 c_msd[4]
variable fit equal slope(f_9)/6/(10*dt)
thermo_style custom step temp pe c_msd[4] v_twopoint v_fit v_max_n


fix 1  all npt temp  ${temp} ${temp}  0.1  iso  5.68  5.68  0.5  mtk yes tchain  5  pchain  5
fix 1  all npt temp  0.93 ${temp}  0.1  iso  5.68  5.68  0.5  mtk yes tchain  5  pchain  5
fix 1  all npt temp  0.93 0.93  0.1  iso  5.68  5.68  0.5  mtk yes tchain  5  pchain  5

dump dmp2 all dcd ${N} traj.dcd
dump dmp2 all dcd 100 traj.dcd
dump dmp3 all dcd ${N} traj_unwrap.dcd
dump dmp3 all dcd 100 traj_unwrap.dcd
dump_modify dmp3 unwrap yes


# fix rnuntil all halt ${N} v_max_n >= 3980 error soft message no   # Stop when solidified

run 100000 # 5000000  # Run for this many steps
Neighbor list info ...
  update every 1 steps, delay 10 steps, check yes
  max neighbors/atom: 2000, page size: 100000
  master list distance cutoff = 3.8
  ghost atom cutoff = 3.8
  binsize = 1.9, bins = 6 6 6
  5 neighbor lists, perpetual/occasional/extra = 1 4 0
  (1) pair lj/cut, perpetual
      attributes: half, newton on
      pair build: half/bin/atomonly/newton
      stencil: half/bin/3d
      bin: standard
  (2) compute orientorder/atom, occasional
      attributes: full, newton on
      pair build: full/bin/atomonly
      stencil: full/bin/3d
      bin: standard
  (3) compute coord/atom, occasional
      attributes: full, newton on
      pair build: full/bin/atomonly
      stencil: full/bin/3d
      bin: standard
  (4) compute cluster/atom, occasional
      attributes: full, newton on
      pair build: full/bin/atomonly
      stencil: full/bin/3d
      bin: standard
  (5) compute rdf, occasional, copy from (1)
      attributes: half, newton on
      pair build: copy
      stencil: none
      bin: none
Per MPI rank memory allocation (min/avg/max) = 9.697 | 9.703 | 9.706 Mbytes
Step Temp PotEng c_msd[4] v_twopoint v_fit v_max_n 
    4000   0.91125189   -6.3771073 1.5859391e-30 3.3040394e-32 8.3333333e+20            3 
    4100   0.87523134   -6.3955691  0.046461122 0.00094433162  0.041943011            3 
    4200   0.90439206   -6.4189104  0.078216653 0.0015519175  0.035263037            2 
    4300   0.92191091   -6.3482275  0.097528666 0.0018900902  0.027893838            2 
    4400   0.88885606   -6.3465963   0.11744001 0.0022242424  0.023715377            3 
    4500    0.8886464   -6.3846149   0.14185592 0.0026269612  0.021791075            3 
    4600    0.9711628   -6.3929758   0.16877988 0.0030576061   0.02127198            5 
    4700   0.92521466    -6.404511   0.20603059 0.0036530242  0.021613634            2 
    4800   0.91319559    -6.374079   0.23956211  0.004159064   0.02245374            1 
    4900   0.96583362   -6.3746196   0.25501178 0.0043369346  0.022675803            2 
    5000   0.95632808   -6.3517868   0.27443842 0.0045739732  0.022374611            1 
    5100    0.9230207    -6.416668   0.29364581 0.0047981337  0.021890723            7 
    5200   0.96683512     -6.42383   0.32274429 0.0051721836  0.021568008            4 
    5300   0.97422142   -6.3610922   0.35219385 0.0055376387  0.021484365            3 
    5400   0.97075382   -6.4055773   0.37709655 0.0058193907    0.0215174            3 
    5500   0.89883514   -6.3801737   0.39097279 0.0059238297  0.021368229            3 
    5600   0.94282874    -6.413395   0.40519063 0.0060296219  0.021042195            2 
    5700   0.90589625    -6.438493   0.41692784 0.0060954357  0.020584607            4 
    5800    0.8873597   -6.3876308   0.43686651 0.0062768172   0.02012129            4 
    5900   0.90431552   -6.3814611   0.45607918 0.0064417957  0.019747653            8 
    6000   0.91891729    -6.394641   0.46880929 0.0065112396  0.019378801            4 
    6100   0.89384734   -6.4243597   0.48862316 0.0066751793   0.01901812            4 
    6200    0.9076139   -6.3992765   0.50504987 0.0067883042  0.018744773            6 
    6300   0.95656566   -6.3813844   0.51762506 0.0068468917  0.018442152            5 
    6400   0.92508731   -6.3629152   0.54505805 0.0070971095  0.018190263            5 
    6500   0.95315194   -6.3970269   0.54811506 0.0070271156  0.017973201            7 
    6600   0.88641445   -6.3735251   0.56379762 0.0071186563  0.017673182            3 
    6700   0.93185933   -6.3610282   0.59113474 0.0073524215  0.017468108            2 
    6800   0.93961139   -6.3980123   0.61118837  0.007490053  0.017308452            4 
    6900   0.90730072   -6.4461741   0.63358891 0.0076520394  0.017181542            4 
    7000   0.89850786   -6.4362065   0.66861588 0.0079597123    0.0171245            8 
    7100   0.92123154   -6.3852132   0.69512732 0.0081587707  0.017132434            5 
    7200   0.95030012   -6.4016795   0.72038137 0.0083377468  0.017152776            9 
    7300   0.97123885   -6.3602231   0.73351415 0.0083734486   0.01717534            7 
    7400   0.93633103   -6.3497246   0.74203745  0.008356277   0.01714309            3 
    7500   0.92747186   -6.3813169   0.76807979 0.0085342193  0.017107843            5 
    7600    0.9130959   -6.4224203   0.77840664   0.00853516  0.017073111            6 
    7700   0.92486126     -6.38011   0.80087154 0.0086674403  0.017014655            2 
    7800   0.94119759   -6.3409526   0.83098147 0.0088780065  0.017003966            1 
    7900   0.92435179    -6.311835   0.84516349 0.0089152262  0.016993263            1 
    8000   0.93531586   -6.3522551   0.86448836 0.0090050865  0.016976595            2 
    8100    0.9315442   -6.3938841   0.87192907 0.0089704631  0.016945279            2 
    8200   0.96386965   -6.4057325   0.88054585 0.0089486362  0.016880398            3 
    8300   0.94699597   -6.3654291   0.88631697 0.0088987642  0.016782968            4 
    8400   0.95541223   -6.3885822   0.89310559 0.0088601739  0.016672543            3 
    8500    0.9083364   -6.3578673   0.90249589 0.0088479984  0.016541166            3 
    8600   0.95412826   -6.4051214    0.9309712 0.0090210383  0.016426686            3 
    8700   0.89982348     -6.41319   0.96361029 0.0092299831  0.016356042            3 
    8800   0.95410324   -6.4115201   0.98124452 0.0092920877  0.016299262            6 
    8900   0.97105039   -6.4261204    1.0127786 0.0094829448  0.016263789            6 
    9000   0.91707675   -6.4192565     1.032374  0.009559018  0.016242066            9 
    9100   0.97501738   -6.3905843    1.0598881 0.0097059341  0.016228987           14 
    9200   0.94102069   -6.3913977    1.0895489 0.0098691014  0.016231646            7 
    9300   0.91830349   -6.3855756    1.1060648 0.0099109745  0.016234828            4 
    9400   0.91766587   -6.4110587    1.1276564  0.009996953  0.016244053            4 
    9500   0.92743184   -6.4050707    1.1524592  0.010109291  0.016258227            3 
    9600   0.94895597   -6.4560647    1.1518675 0.0099988492  0.016257253           11 
    9700   0.89542377   -6.4558309    1.1737367  0.010083648  0.016244178            6 
    9800   0.90327231   -6.4169556    1.1891209  0.010111572  0.016222842           11 
    9900   0.94628546   -6.3719562    1.1938878   0.01004956  0.016194698            7 
   10000   0.92859803   -6.4154753    1.2144331  0.010120276  0.016156872            3 
   10100   0.95151861   -6.4204109    1.2202042  0.010067691   0.01612411            8 
   10200     0.920247   -6.4192571    1.2423691  0.010150074  0.016073862            7 
   10300   0.91630867   -6.4844845    1.2688364  0.010265666  0.016045962            5 
   10400     0.893963    -6.387455    1.2867943  0.010310852  0.016025264            3 
   10500   0.95190259    -6.404924    1.2991223  0.010310494  0.015997774            3 
   10600   0.94154487    -6.412617    1.3147457   0.01033605  0.015968094            4 
   10700   0.93190257   -6.4115242    1.3173372  0.010259635  0.015921116            5 
   10800   0.88269854   -6.4156643    1.3417148  0.010352737  0.015874679            3 
   10900   0.93517214   -6.4013366    1.3588183  0.010388519  0.015837624            5 
   11000   0.90754044   -6.3803982    1.3874618  0.010511074  0.015808191            3 
   11100     0.913109   -6.4640973    1.3959475  0.010480086  0.015781354            2 
   11200   0.89577033   -6.3885751    1.4135223  0.010517279  0.015746993            5 
   11300   0.93038016   -6.4096831    1.4243631  0.010504152  0.015715762            2 
   11400   0.90969385   -6.4208891    1.4507878  0.010605174  0.015685469            5 
   11500   0.91440226   -6.4703315     1.481998  0.010739115  0.015664025            4 
   11600   0.94754755   -6.4101514    1.4997223  0.010773867  0.015649117            2 
   11700   0.88561401   -6.3715543    1.5110435  0.010762418  0.015634648            4 
   11800   0.94712025   -6.3396059    1.5468428   0.01092403  0.015628099            3 
   11900   0.95911611   -6.3470718    1.5603604  0.010926893   0.01562588            3 
   12000   0.96310239   -6.3936133    1.5753689  0.010940061   0.01562159            4 
   12100    0.9480082   -6.3671372    1.6073722  0.011070056  0.015622642            3 
   12200    0.9562596   -6.2881712    1.6561431  0.011312453  0.015643276            8 
   12300    0.9357431   -6.3882085    1.6856211  0.011420196  0.015672541            6 
   12400   0.94306047   -6.3494037    1.7024627  0.011441281  0.015700938            8 
   12500    1.0017559    -6.324351    1.7015129  0.011343419  0.015725627            6 
   12600   0.91031832   -6.3343465     1.696574  0.011220727  0.015731424            5 
   12700   0.95178451   -6.3880976    1.6864247  0.011065778  0.015716468           16 
   12800    0.9282446   -6.4141335    1.6921171  0.011016387  0.015686778            6 
   12900    0.9531782   -6.3631696    1.7455125   0.01127592  0.015664904           11 
   13000   0.96638513    -6.432979    1.7824093    0.0114257  0.015664439            3 
   13100   0.92855307   -6.4233907     1.791562  0.011396704  0.015661558            5 
   13200   0.91320981   -6.3134469    1.8250449  0.011521748  0.015661138            3 
   13300   0.95516544   -6.3660339    1.8636012  0.011676699   0.01567133            5 
   13400   0.92990876   -6.4006877    1.8699892  0.011629286  0.015684317            3 
   13500   0.88228185    -6.419017    1.8781762   0.01159368  0.015684295            6 
   13600    0.8898592    -6.361253     1.886498  0.011559424  0.015683717            7 
   13700   0.98396016   -6.4319823    1.9237169  0.011701441  0.015688553            8 
   13800   0.89820425   -6.3874493    1.9504874  0.011778305  0.015697822            3 
   13900   0.91861151   -6.4011672    1.9583865  0.011740926  0.015707216            6 
   14000   0.91016275   -6.3841126    1.9831368  0.011804386  0.015711196            8 
   14100   0.89184531   -6.4552079    1.9657822  0.011618098   0.01570794            5 
   14200   0.94843792   -6.4535147    1.9861372  0.011655734  0.015694454            3 
   14300   0.94565045   -6.4341984    2.0051972  0.011685298  0.015688018            9 
   14400    0.9406572   -6.4029247    2.0067789  0.011613303   0.01567956            3 
   14500   0.98262833   -6.4410466    2.0175232   0.01159496  0.015664679            9 
   14600   0.89442943   -6.4033226    2.0425362  0.011658311  0.015651458            8 
   14700   0.96166315   -6.4317948    2.0162132   0.01142978  0.015624737            7 
   14800   0.97118582   -6.4286419    2.0409516  0.011491844  0.015597129            4 
   14900   0.89515162   -6.4137263    2.0787903  0.011626343  0.015572755            2 
   15000   0.99350423   -6.4802867    2.0803315  0.011557397  0.015550434           17 
   15100   0.94236281    -6.444744    2.1009252  0.011594509  0.015527445           14 
   15200   0.91574273   -6.4806895     2.105357  0.011542527  0.015501016            6 
   15300   0.94645423   -6.4272829    2.1368645  0.011638695  0.015477206            5 
   15400    0.9551232   -6.4173539    2.1573551  0.011673999   0.01545468            7 
   15500   0.88673059   -6.4132883    2.1701177  0.011667299  0.015433223            6 
   15600   0.91036364   -6.4141261     2.215851  0.011836811  0.015417602            5 
   15700   0.89929133   -6.4098024    2.2501418  0.011943428   0.01541023            6 
   15800   0.90224982   -6.4941418     2.257667  0.011907526  0.015402679            4 
   15900    0.9021973   -6.4549499     2.279781  0.011948538  0.015397126            2 
   16000   0.96974279    -6.458928    2.2860363  0.011906438  0.015388732            3 
   16100   0.91297889   -6.4416533    2.2688996  0.011743787  0.015371126            6 
   16200   0.91131041   -6.4727141    2.2998845  0.011830681  0.015351816            7 
   16300   0.93884631   -6.4678196    2.3406004   0.01196626  0.015339742            4 
   16400   0.93664894   -6.3756372    2.3609476  0.011996684  0.015332638            4 
   16500   0.87722515   -6.3831955    2.3706827  0.011973145  0.015324613            3 
   16600   0.93446737   -6.4335458    2.4139748  0.012118347   0.01531977            2 
   16700    0.9314076   -6.4069047    2.4507243  0.012229163  0.015323114            4 
   16800   0.91792041   -6.3843061    2.4376186  0.012091362  0.015324204            2 
   16900   0.99421082    -6.410371    2.4787104  0.012222438  0.015322315            2 
   17000   0.95125143   -6.4286147    2.4876642  0.012194432  0.015323934           11 
   17100    0.9469784   -6.4705886    2.5321221  0.012339776  0.015327587           12 
   17200    0.9366517   -6.3783625    2.5083995  0.012153098  0.015329141            3 
   17300   0.90959821    -6.393655    2.5316082  0.012194644   0.01532382            5 
   17400   0.94474162   -6.4367607    2.5510491  0.012217668  0.015320516            2 
   17500   0.91682875   -6.4027303    2.5588928  0.012185203  0.015316622            2 
   17600   0.92261419   -6.3982106    2.5657979  0.012148664  0.015306697            2 
   17700   0.89706859   -6.4329829    2.5766985  0.012131349   0.01529535            1 
   17800   0.92237434   -6.3818141    2.6123568  0.012230134    0.0152889            6 
   17900   0.94661247   -6.3139243    2.6265431  0.012227854  0.015285634            3 
   18000   0.96715297   -6.3604956    2.6345917  0.012197184  0.015281098            4 
   18100   0.92864624   -6.4079898    2.6525187  0.012212332  0.015271723            1 
   18200   0.98394944   -6.4694707     2.675942  0.012252481  0.015264726            3 
   18300   0.86632053   -6.3757584    2.6970152   0.01228149   0.01526026            8 
   18400   0.93066144   -6.3898653    2.6981751  0.012219996  0.015250882            4 
   18500   0.95784522   -6.3974193    2.7160242  0.012234343  0.015240503            3 
   18600   0.93618629   -6.4609562    2.7193587  0.012183506  0.015228693            7 
   18700   0.91606425   -6.4065774    2.7517637  0.012262761  0.015216661            4 
   18800   0.93398178   -6.4156255    2.7941102   0.01238524  0.015209823            4 
   18900   0.91230603   -6.4188612    2.8182318  0.012426066  0.015206137           10 
   19000   0.96242674    -6.385086     2.830776  0.012415684  0.015203269            3 
   19100   0.93734837   -6.3822102    2.8424491   0.01240161  0.015199605            5 
   19200   0.94334931   -6.3824271    2.8478315  0.012360379  0.015194842            3 
   19300   0.87659374    -6.351777       2.8878  0.012468912   0.01519066            4 
   19400   0.97199793   -6.3976365    2.9067179  0.012485901  0.015189044            2 
   19500   0.91631621   -6.4179695    2.8900325  0.012350566  0.015183378            1 
   19600   0.95942812   -6.4360935    2.9258352  0.012439775  0.015176154            2 
   19700   0.94044509   -6.3805598    2.9505867  0.012481331  0.015173516            3 
   19800   0.90759426   -6.4103091    2.9746667  0.012519641  0.015171772            2 
   19900   0.94799559   -6.4110398    2.9913662  0.012526659  0.015169145            3 
   20000   0.89354869   -6.3826993    3.0443786   0.01268491  0.015168793            2 
   20100   0.97115139   -6.4553065    3.0620024  0.012694869  0.015172115            6 
   20200   0.91956025   -6.4623634    3.0743835    0.0126831  0.015173733            6 
   20300   0.95320476   -6.4371917    3.1383964    0.0128834  0.015180111            5 
   20400   0.90330239   -6.4171942    3.1693384  0.012946644  0.015191587            3 
   20500   0.86942743   -6.4451468     3.168264  0.012879122  0.015203207            1 
   20600    0.9090844   -6.4093351    3.1984872  0.012938864  0.015210366            4 
   20700   0.87330431   -6.3940766    3.2157713  0.012945939  0.015218407       -1e+20 
   20800   0.94041836   -6.4607626    3.2240525  0.012916877  0.015226022            2 
   20900   0.88501904   -6.4702669    3.2345155  0.012896792  0.015230627            1 
   21000   0.91849597    -6.410708    3.2433626  0.012870486  0.015234872            6 
   21100   0.92910295    -6.361421    3.2819938   0.01296206  0.015242263            5 
   21200   0.93020367   -6.3857217    3.3108081  0.013014182  0.015251435            4 
   21300   0.92377493   -6.4350311    3.3163369  0.012974714   0.01525937            1 
   21400   0.87706246   -6.4568373    3.3156017  0.012911221  0.015263839            1 
   21500   0.95207044   -6.4564514    3.3172009  0.012857368   0.01526659            2 
   21600   0.97404259   -6.3998896    3.3414836  0.012891526  0.015267928            2 
   21700   0.90132346   -6.3904724    3.3695649  0.012939957  0.015272467            5 
   21800   0.89304232   -6.4040168    3.4180457  0.013065924  0.015277245            3 
   21900   0.93250026    -6.418519    3.4506781  0.013130434  0.015285733            4 
   22000   0.90747144   -6.3225664    3.4774726  0.013172244  0.015297205            2 
   22100   0.94013942   -6.3762753    3.5063454  0.013221513  0.015309637            4 
   22200   0.93860862   -6.4154344    3.5238087   0.01322751  0.015322153            3 
   22300   0.93424101   -6.3710316    3.5579911  0.013295931  0.015333707            2 
   22400   0.90166515   -6.4200879    3.6083508  0.013423924   0.01534944            2 
   22500   0.92636989   -6.3607529    3.6592615   0.01355282  0.015370001            3 
   22600    0.8859401    -6.336884    3.6632335  0.013507498  0.015391207            5 
   22700   0.90539616   -6.4398782    3.6663258  0.013459345  0.015409009            6 
   22800   0.91787586   -6.4119826    3.6959575  0.013508616  0.015424438            6 
   22900   0.88354335   -6.4122087    3.6856323  0.013412053  0.015439188            4 
   23000   0.93714548   -6.3949637    3.6761772  0.013319482  0.015448359            6 
   23100   0.97727261   -6.3382895    3.7135614  0.013396686  0.015459349            6 
   23200   0.92757912   -6.4087428    3.7242875  0.013377469  0.015470801            3 
   23300   0.88655959   -6.4149027    3.6935635   0.01321017  0.015475614            3 
   23400   0.94171614   -6.4808028    3.7192238  0.013245099  0.015477562            2 
   23500   0.94907705   -6.4444551    3.7456391  0.013282408  0.015481971            4 
   23600   0.99657656   -6.4253033    3.7604026  0.013278257  0.015487108            7 
   23700   0.93140893   -6.3705494    3.7809262  0.013294396  0.015492601            2 
   23800   0.92162161   -6.4009379    3.7895754  0.013268821  0.015496975            2 
   23900    0.9476732   -6.4061943    3.8185886  0.013314465  0.015502155            5 
   24000   0.91394477   -6.4174321    3.8434507  0.013345315  0.015504676            2 
   24100   0.93845276   -6.4026055    3.8521583  0.013320049  0.015508388            2 
   24200   0.90901446   -6.2974871    3.8938156  0.013408456  0.015512028            1 
   24300   0.93756556    -6.308836    3.8936103  0.013352573  0.015516391            1 
   24400   0.93980932   -6.3803567    3.9093976  0.013351768  0.015519348            5 
   24500   0.92655125   -6.4455683    3.9085877  0.013294516  0.015521127            4 
   24600   0.88973054   -6.4803316    3.9442325  0.013361221  0.015521948            1 
   24700   0.89864675   -6.4096575     3.974583  0.013409524  0.015523613            4 
   24800   0.94111512    -6.369685    3.9955263  0.013425827  0.015526177            5 
   24900   0.92005881   -6.4079702    4.0052202  0.013404351  0.015528977            3 
   25000   0.90801697   -6.4238543    4.0188339  0.013396113   0.01553022            1 
   25100   0.95658769   -6.3896715     4.037615  0.013405096  0.015531385            1 
   25200   0.94008654   -6.4326965    4.0237362  0.013306006  0.015531786            2 
   25300   0.93760156   -6.4390397    4.0518426   0.01334599  0.015529822            5 
   25400   0.92486021   -6.4038804    4.0990274  0.013448252  0.015530219            7 
   25500   0.91615111   -6.3927244    4.1229872  0.013473814  0.015532377            4 
   25600   0.92675016   -6.4167563    4.1311704   0.01344782  0.015535431            9 
   25700   0.97473712   -6.3965726    4.1332429  0.013402214  0.015537282            3 
   25800   0.92207309   -6.4003051     4.164417  0.013450959    0.0155395            3 
   25900   0.91073533   -6.4260232    4.1932043  0.013491648  0.015541896            5 
   26000   0.91964961   -6.3384392    4.2592377  0.013651402  0.015546499            1 
   26100   0.91710891   -6.3490582    4.2978736  0.013722457  0.015553627            1 
   26200   0.90487753   -6.3935339    4.2866021   0.01363423  0.015560201            1 
   26300   0.94162037   -6.4489877    4.3059643   0.01364374  0.015565251            7 
   26400   0.91140086   -6.4277825    4.3376618  0.013692114  0.015570531            7 
   26500   0.91126473   -6.4618039    4.3347236  0.013631206  0.015575014            6 
   26600   0.96089891   -6.4259502    4.3786214  0.013717485  0.015579791            4 
   26700   0.90343667   -6.4038907    4.4429809  0.013866981   0.01558917            6 
   26800   0.91367753   -6.3842736    4.4299226  0.013774635  0.015597675            3 
   26900   0.95353846   -6.3044547    4.4896491  0.013908454  0.015607241            4 
   27000   0.94406562   -6.4000798    4.5103657  0.013920882  0.015619713            2 
   27100    0.9334336   -6.4270773    4.5458366  0.013978587  0.015632312            1 
   27200   0.86743806   -6.4543209    4.5481788  0.013934371  0.015644637            4 
   27300   0.90784129    -6.455472    4.5637762   0.01393094  0.015656081            6 
   27400   0.93129208   -6.4127146    4.5825988  0.013937344  0.015667018           11 
   27500   0.93682479   -6.4413922    4.6365863  0.014050261  0.015678632            5 
   27600   0.90550346   -6.3464874    4.6706351  0.014102159  0.015691303            7 
   27700   0.87515862    -6.398409    4.6839409  0.014091278  0.015702944            4 
   27800   0.91953196   -6.4232404    4.7178827  0.014142334  0.015714763            4 
   27900    0.9212615   -6.3538633    4.7569876  0.014208445  0.015729027            3 
   28000    0.8975434   -6.4193056    4.7159776  0.014035647  0.015741707            5 
   28100   0.95553919   -6.4582142    4.7390348  0.014054077  0.015750819            7 
   28200   0.88682007   -6.3927276    4.7742556   0.01410832  0.015760949            3 
   28300   0.93961561   -6.3864985    4.8375113  0.014244733  0.015772517            4 
   28400   0.94744633   -6.4072516    4.8481298  0.014225733  0.015786408            2 
   28500   0.89010425   -6.3586978    4.8589043  0.014207322  0.015799994            2 
   28600    0.9254848   -6.3327123    4.8843275  0.014231723   0.01581415            4 
   28700   0.95864375   -6.2919296    4.9355205  0.014330779  0.015830108            2 
   28800   0.96165985   -6.4185306    4.9406845  0.014295962  0.015845638            1 
   28900    0.9305696   -6.4309101    4.9303631  0.014216733   0.01585846           10 
   29000   0.94948349   -6.3642864    4.9652862  0.014268064  0.015869545            7 
   29100   0.90400225   -6.3152501    4.9925468  0.014297098  0.015882287            3 
   29200     0.934507   -6.4430751    4.9875153  0.014233776  0.015892946            3 
   29300   0.92013409   -6.4259382    5.0155949  0.014265059  0.015902748            5 
   29400    0.9171406   -6.4243408    5.0578096  0.014336195  0.015912434            6 
   29500   0.94451628   -6.3717279    5.0434294  0.014246975  0.015922281            2 
   29600   0.93560117   -6.3692857    5.0804299  0.014303012  0.015931826            2 
   29700   0.87056396   -6.3671733    5.1128978  0.014345953  0.015942467            4 
   29800   0.92340113    -6.385062    5.1634076  0.014439059  0.015955106            3 
   29900   0.94644317   -6.3393322    5.1952436  0.014479497  0.015967841            8 
   30000   0.91089913   -6.3436334    5.1952615  0.014431282  0.015980254            3 
   30100    0.9129081    -6.374775    5.2280518  0.014474119  0.015992417            2 
   30200   0.90860201   -6.3939091    5.2797613  0.014568877  0.016006531            4 
   30300   0.91119718   -6.3427993    5.3267284  0.014649968  0.016021876            3 
   30400    0.9329478   -6.3086903    5.3915404  0.014779442  0.016040438            6 
   30500   0.95746819   -6.3909565    5.4093373   0.01477961  0.016059658            6 
   30600   0.90242473   -6.3769721    5.4513441  0.014845708  0.016078701            1 
   30700   0.96580174   -6.3758454     5.515199  0.014970681  0.016100419            3 
   30800   0.91769199   -6.3344211    5.5406151  0.014990841   0.01612287            7 
   30900   0.93645424   -6.4193845      5.53372  0.014923732  0.016142573            3 
   31000   0.93103523   -6.4183425    5.5541204  0.014930431  0.016162639            3 
   31100   0.89714826   -6.4449623    5.5842243  0.014963087  0.016182302            4 
   31200   0.90344476   -6.3696847    5.6079347  0.014978458  0.016200596            3 
   31300    0.9553543   -6.3292008    5.7042992  0.015187165  0.016222604            3 
   31400    0.9337949   -6.4075869    5.6666795  0.015038958   0.01624487           12 
   31500   0.86984566   -6.3467527    5.6687881  0.014996794  0.016265149            5 
   31600   0.95552742   -6.3993352    5.6807647  0.014980919  0.016284499            2 
   31700    0.9041711   -6.3912672    5.6341254  0.014811055  0.016300837            1 
   31800   0.93952969   -6.3734182    5.6347659  0.014766158   0.01631425            3 
   31900   0.96305338   -6.3617407    5.6207958  0.014683375  0.016325778            4 
   32000   0.93619238   -6.4177566    5.5968572  0.014575149  0.016333623            3 
   32100   0.90591937   -6.4104524    5.6457712  0.014656727  0.016342061           14 
   32200   0.94243222   -6.4154757    5.6327426  0.014577491  0.016349587           12 
   32300   0.90147623   -6.4328585    5.7382124  0.014804469  0.016358776            3 
   32400   0.93405476   -6.3881272    5.7541585   0.01479979  0.016369802            6 
   32500   0.93169301    -6.411221    5.7886463  0.014842683  0.016379936            7 
   32600   0.91113522   -6.4713705    5.7605641  0.014725368  0.016389281            2 
   32700   0.94768103   -6.4880971     5.763409  0.014687586  0.016397007            1 
   32800   0.92026611   -6.4376501     5.779678  0.014684141  0.016403783            4 
   32900   0.99194218   -6.4498524    5.8294154   0.01476549  0.016411738            2 
   33000   0.92489807    -6.432298    5.8712324  0.014826344  0.016420736            3 
   33100   0.91963782   -6.4224404    5.8881552  0.014824157  0.016430664            2 
   33200   0.95205098   -6.3665899    5.8873025  0.014777365  0.016440035            5 
   33300    0.9223752   -6.3712667    5.9049477  0.014777146  0.016448611            8 
   33400   0.97101341   -6.4113512     5.873101  0.014653445  0.016455256           15 
   33500   0.94732616    -6.374473    5.8908218  0.014653785  0.016460282           11 
   33600   0.90509489   -6.3278444    5.9259401  0.014697272  0.016465148            9 
   33700   0.96614764   -6.4377386    5.8935262  0.014573507  0.016469018            3 
   33800   0.94491599   -6.4032196    5.9386061  0.014641534  0.016472241            3 
   33900   0.89693967   -6.4165317    5.9950134  0.014737004  0.016476838            4 
   34000   0.94797338    -6.375289    6.0098653  0.014730062  0.016482721            3 
   34100   0.93974142   -6.4186002    6.0359266  0.014750553  0.016488654            5 
   34200   0.93681271   -6.4413233    6.0746255  0.014801719  0.016494779            2 
   34300   0.90096515   -6.3573433    6.1068294  0.014836806   0.01650154            2 
   34400   0.96911454   -6.3752902    6.1307091  0.014851524  0.016508706            1 
   34500   0.87519162   -6.3448993    6.1694715  0.014902105  0.016515634            5 
   34600    0.9302241   -6.3533979    6.1455196  0.014801348  0.016521976            5 
   34700   0.94672825   -6.3730749    6.2072831   0.01490702   0.01652854            2 
   34800   0.93095703   -6.4209186    6.1958802  0.014836878  0.016534884            8 
   34900   0.91755666   -6.4414667     6.189784  0.014779809  0.016539144            4 
   35000   0.92602428   -6.4538289    6.2099907  0.014785692  0.016541893            7 
   35100    0.9613544     -6.45105     6.285435  0.014922685  0.016546808           12 
   35200   0.87850668    -6.421094     6.329177  0.014983847  0.016553873            9 
   35300   0.92347824   -6.4003945    6.3784665  0.015057758  0.016561529            2 
   35400   0.93037674   -6.4181722    6.3809816  0.015021143  0.016569352            2 
   35500   0.94690484   -6.4415289     6.367478  0.014947131  0.016576016            3 
   35600   0.87571348   -6.4151673    6.3748714  0.014922452  0.016582078            3 
   35700   0.94859403   -6.4358124    6.3876315  0.014910437  0.016588432            5 
   35800   0.92947544   -6.4282246    6.4275031  0.014961599  0.016594649            3 
   35900   0.94893385   -6.4234454     6.412975    0.0148862  0.016599736            8 
   36000   0.92677909   -6.4238017    6.4103786  0.014838839  0.016603488            5 
   36100   0.90172858   -6.3819477    6.4471277  0.014882566  0.016606641            6 
   36200   0.97308099   -6.4233678    6.4841558  0.014926694   0.01661038            2 
   36300   0.90033587    -6.381875     6.486882  0.014891832  0.016615218            3 
   36400   0.96581618   -6.4086092    6.4836811  0.014843592  0.016619367            4 
   36500   0.98670834   -6.3393294    6.5300523  0.014908795  0.016624054            5 
   36600   0.92903868   -6.3461226    6.5703698  0.014959858  0.016630017            9 
   36700   0.95178259   -6.4060512    6.5948005   0.01497457  0.016635903            6 
   36800   0.95885731   -6.4082214    6.6143596  0.014978169  0.016641847           18 
   36900   0.93902179   -6.3928546    6.6118303  0.014931866  0.016646792           20 
   37000   0.91408951   -6.4277815    6.6254827  0.014922258  0.016650241           14 
   37100   0.91400571   -6.4537322    6.6532091  0.014944315   0.01665326           17 
   37200   0.91668194   -6.4413964    6.6967712  0.015001727  0.016656297           18 
   37300   0.94018264   -6.4384361    6.6941596  0.014955674  0.016659745           17 
   37400   0.88858166   -6.4413034    6.6796539  0.014883364  0.016661616           18 
   37500   0.95222392    -6.451538    6.7239563  0.014942125  0.016664095           14 
   37600   0.94900819   -6.4178287    6.7319347  0.014920068  0.016666858           14 
   37700   0.97908662   -6.3906547    6.7433922  0.014905818  0.016669523            4 
   37800    0.9165292   -6.4199354    6.7691943  0.014923268  0.016671654            8 
   37900   0.95753067   -6.4230305    6.8355968  0.015029896  0.016674487           10 
   38000   0.95431405     -6.40443    6.8700162  0.015065825  0.016679047           12 
   38100    0.9177883   -6.3876911    6.9138218  0.015122095  0.016683943            9 
   38200   0.91483122   -6.3847244    6.9701901  0.015205476  0.016689624            9 
   38300   0.92943232   -6.3514885    6.9845098  0.015196931  0.016695633            3 
   38400   0.87118356   -6.3527774    7.0110663  0.015214987  0.016702501            2 
   38500   0.94261371    -6.398407    7.0047102   0.01516171    0.0167088            4 
   38600   0.95076463   -6.4393556    7.0438103  0.015206844  0.016714868            7 
   38700   0.94900262   -6.4289518    7.0738468  0.015232228  0.016721214            2 
   38800   0.92759708   -6.3517889    7.0705191  0.015185823  0.016727725            3 
   38900   0.87711929   -6.3440275    7.1016931  0.015213567  0.016734543            8 
   39000   0.94435108   -6.3808565    7.1312634  0.015237742  0.016740443            9 
   39100   0.93651617   -6.3391993    7.1995084  0.015344221  0.016747879           14 
   39200   0.89014157   -6.3642768    7.2252961  0.015359898  0.016755676            6 
   39300   0.88485467   -6.4026703    7.2470771  0.015366999  0.016762832            3 
   39400    0.9314055    -6.376742      7.29083  0.015420537  0.016769808            3 
   39500   0.91498043   -6.4455217     7.277061  0.015352449  0.016776856            4 
   39600   0.87523209   -6.3212544    7.2219728  0.015197754  0.016782365            2 
   39700   0.93531551   -6.3979799    7.2491199  0.015216456  0.016786855            3 
   39800    0.9489136   -6.3579862    7.2657649  0.015213075   0.01679128            2 
   39900   0.91415524   -6.4073572    7.2814688  0.015207746  0.016794765            4 
   40000   0.91481109   -6.4342437    7.3129168  0.015235243  0.016797634            1 
   40100   0.93808364   -6.3775548    7.3292558  0.015231205  0.016800978            2 
   40200   0.92312206   -6.3787046    7.2826613  0.015096727  0.016803576            3 
   40300   0.94677294   -6.3993193    7.3043871  0.015104192  0.016805634            2 
   40400   0.94318086   -6.4008014    7.2824311  0.015021516  0.016806934            4 
   40500   0.91409252   -6.4152554    7.2877354   0.01499534  0.016806997            5 
   40600   0.98404362    -6.407366    7.2813113   0.01494522  0.016806345            1 
   40700   0.96151581   -6.2729508    7.3846293  0.015120043   0.01680724            3 
   40800   0.95494883   -6.3884451    7.3810735  0.015075722   0.01680889            7 
   40900   0.93805339   -6.3960398    7.3794715  0.015035598  0.016809363            8 
   41000   0.87433286   -6.4333664     7.415864  0.015072894  0.016809107            5 
   41100   0.91657205   -6.4119055     7.464312  0.015134452  0.016809333            6 
   41200   0.95758954   -6.3963615    7.4850148  0.015139593   0.01681121            3 
   41300   0.94355443   -6.3873418    7.5034271  0.015140087  0.016812951            4 
   41400   0.91427116   -6.4066184    7.5309799  0.015158977  0.016814637            7 
   41500    0.9276728   -6.3597291    7.6102766   0.01528168  0.016817291            5 
   41600   0.98819023   -6.4428612    7.6141739  0.015252752  0.016820086            1 
   41700   0.90223247   -6.3885127    7.5981699  0.015184192  0.016822371            4 
   41800   0.97307346   -6.4257557    7.6262154  0.015203778  0.016823942           12 
   41900   0.91334045   -6.3442242    7.6085462  0.015132351  0.016825277           13 
   42000   0.91407295   -6.4010294    7.6398018  0.015158337  0.016826198            2 
   42100   0.93523188   -6.4372349    7.5930823  0.015029854  0.016825858            7 
   42200   0.92352052   -6.3981449    7.5918794  0.014991863  0.016824923            8 
   42300   0.93594521   -6.3457364    7.5916457  0.014955961  0.016823043            6 
   42400   0.97852417   -6.3093869    7.6211232  0.014978622   0.01682176            5 
   42500   0.93406349   -6.3497865    7.6575639  0.015014831  0.016820886            4 
   42600   0.95617171   -6.3733674    7.7064474   0.01507521    0.0168208            5 
   42700   0.92963408   -6.3371814    7.7686869  0.015161372  0.016821455            4 
   42800   0.96005702   -6.3672427    7.8065345  0.015199639  0.016822424            3 
   42900   0.90509604   -6.3414623    7.8072457   0.01516559  0.016823131            3 
   43000   0.90133772   -6.3736248    7.8787081  0.015268814  0.016825473            2 
   43100   0.95492541   -6.3775647    7.9249671  0.015322829  0.016828105            2 
   43200   0.95038525   -6.3625337    7.9645255  0.015363668  0.016831904            2 
   43300   0.88363507   -6.3605598    8.0040735  0.015404298  0.016835908            1 
   43400   0.95906836   -6.4379472    8.0200587  0.015399498  0.016839777            5 
   43500    0.8937053   -6.4558062    8.0117931  0.015348262   0.01684322            4 
   43600   0.92835131   -6.4748042    8.0183556  0.015325603  0.016844983            1 
   43700   0.91434628   -6.4547761    8.0262221  0.015305534  0.016846968            4 
   43800   0.88485245   -6.3909891    8.0587354  0.015332449  0.016849098            2 
   43900   0.96097898   -6.4109716    8.0959434  0.015368154   0.01685153            6 
   44000   0.92040936   -6.3726043    8.1567581  0.015448405  0.016855631            7 
   44100   0.96802131   -6.3604553    8.1884636  0.015473287  0.016860319            2 
   44200    0.9428871   -6.4129501    8.1868852  0.015435304   0.01686529            1 
   44300   0.96653013   -6.4031441    8.1860846  0.015398955  0.016869555            3 
   44400   0.93371745   -6.3683912    8.1843285  0.015360977  0.016873196            3 
   44500   0.91532346   -6.2621029    8.3193508  0.015579308  0.016878004            2 
   44600   0.95187932   -6.3117612    8.3205055  0.015546535  0.016883881            3 
   44700   0.92980422   -6.3544706    8.2864332  0.015448235  0.016888276            4 
   44800   0.96259041   -6.3556893    8.3140762  0.015465171  0.016892114            1 
   44900   0.95574914   -6.2774862    8.4379954  0.015660719  0.016897645            8 
   45000   0.93433833   -6.3301574    8.4117325  0.015577282  0.016903939            4 
   45100   0.92042207   -6.4242189    8.4805643  0.015669926  0.016909461            2 
   45200   0.96382274   -6.4052555    8.5383192  0.015741739  0.016915525            6 
   45300   0.91153355   -6.3780797    8.5699693  0.015765212  0.016922447            4 
   45400   0.92319352   -6.4302925    8.5186446  0.015636278  0.016928081            6 
   45500   0.91597216   -6.3901155    8.4906065  0.015550561  0.016932234            4 
   45600   0.93033183   -6.3612934    8.5577036  0.015639078  0.016936754            6 
   45700   0.90524783   -6.3901653    8.5623572  0.015613343  0.016941054           10 
   45800   0.90301346   -6.4064557    8.5263337  0.015513707  0.016944246            5 
   45900   0.94511149    -6.384239    8.6252109  0.015659424  0.016947876           10 
   46000   0.91586102   -6.3755377    8.5701312    0.0155256  0.016951102           11 
   46100   0.93643686   -6.3641056    8.5599506  0.015473519  0.016954126            6 
   46200   0.96485578   -6.4672543    8.5754292  0.015467946  0.016956931            9 
   46300    0.9192495   -6.4332226    8.5757014  0.015435027  0.016959046           12 
   46400    0.9456477   -6.3850467    8.6262525  0.015492551  0.016961976            8 
   46500   0.98784563   -6.3818842    8.7339126  0.015652173  0.016966701            7 
   46600   0.92124082   -6.3273717    8.7598548  0.015664976  0.016972274            4 
   46700   0.91445075   -6.3831281    8.7683465  0.015646585  0.016977274            4 
   46800   0.94460081   -6.4474875    8.7361327  0.015555792  0.016981459            6 
   46900   0.89113498   -6.4383814    8.7351896  0.015520948  0.016984093            3 
   47000   0.93721149   -6.4103816    8.8007775  0.015604215  0.016986991            3 
   47100   0.93383382   -6.4520834    8.8171239  0.015600007  0.016990053            6 
   47200    0.8992044   -6.4257146    8.8350764  0.015598652  0.016992786            6 
   47300   0.93474852   -6.3837089    8.8884175   0.01565965  0.016996009            5 
   47400   0.95067591   -6.3849536    8.9605598  0.015753445  0.017000627            4 
   47500    0.8836929   -6.3832144    9.0094182  0.015805997  0.017006031            3 
   47600   0.89336198   -6.4171512    8.9920958  0.015742464  0.017010409            3 
   47700   0.93008133   -6.3814495    9.0477802  0.015806744  0.017014972            3 
   47800    0.8766213   -6.4159127    9.0582357  0.015791903  0.017020155           10 
   47900   0.92083029   -6.4649898    9.0620492  0.015765569  0.017024238            6 
   48000    0.9362484   -6.3883087     9.105761  0.015808613  0.017028647            2 
   48100   0.84726717    -6.343461    9.1038076  0.015772362  0.017033208            3 
   48200   0.93449443   -6.4142042    9.0861616  0.015709131  0.017036521            5 
   48300   0.93681462   -6.4000659    9.0943214  0.015690685  0.017039804            2 
   48400   0.95633682   -6.3656953    9.1308418  0.015721146  0.017043733            3 
   48500   0.99501018   -6.3146093     9.145934  0.015714663  0.017047067            4 
   48600   0.93730823   -6.3239307     9.114005   0.01562758  0.017050505           19 
   48700   0.95294005   -6.3929379    9.1058231   0.01558149  0.017052625           10 
   48800   0.90648332   -6.3974235    9.0934472  0.015528427  0.017054284           11 
   48900   0.94754532   -6.4010951    9.1041798  0.015514962  0.017055364            3 
   49000   0.97965613   -6.3567948    9.1453723  0.015553354   0.01705706            4 
   49100   0.94273032   -6.3475311    9.1312191  0.015497656  0.017058441            3 
   49200   0.93791254   -6.4055138    9.1291099  0.015462584  0.017058796            2 
   49300   0.90064633   -6.4555475    9.1846121  0.015525037  0.017058637            2 
   49400   0.92108575   -6.4212255    9.2917124  0.015674279  0.017059392            2 
   49500    0.9190955   -6.3777456    9.2817123  0.015625778  0.017060624            3 
   49600   0.93992066   -6.3756146     9.262298  0.015561656  0.017061476            2 
   49700   0.89910238   -6.4189411    9.3269423  0.015638736  0.017062553            1 
   49800   0.94050919   -6.4266289    9.3675185  0.015675232  0.017063899            3 
   49900   0.94908733   -6.3903795    9.3823423  0.015668574  0.017065151            2 
   50000   0.91704998   -6.3997507    9.3481726  0.015580288  0.017066597            1 
   50100   0.92970835   -6.4540587    9.3494707  0.015551348  0.017066847            4 
   50200   0.93296473   -6.3832239    9.4055206  0.015613414  0.017067554            1 
   50300    0.9420187   -6.3982507    9.4112275  0.015591828   0.01706845            5 
   50400   0.91486944   -6.4004082    9.3634914  0.015481963  0.017068532            1 
   50500       0.9485   -6.3769852    9.3426551  0.015416923  0.017067623            3 
   50600   0.95391558   -6.3611195    9.3871536  0.015459739  0.017066831            3 
   50700   0.89676781   -6.3675504     9.419034  0.015481647  0.017066597            6 
   50800   0.97234401    -6.407608    9.4604199  0.015519061  0.017066511            2 
   50900   0.90735642   -6.3591206    9.5022876  0.015557118  0.017066432            3 
   51000   0.88811304   -6.3891988    9.4594819   0.01545667  0.017065412            2 
   51100   0.93547933   -6.3821452    9.5256227  0.015534283  0.017064532            3 
   51200   0.92175087   -6.3704114    9.5357495  0.015520425  0.017064177            2 
   51300    0.9702542   -6.4434764     9.528579  0.015478523  0.017063361            4 
   51400   0.95217902   -6.4088361    9.5320234  0.015453994  0.017062094            1 
   51500   0.93158415   -6.4460429    9.5074677  0.015384252  0.017060447            6 
   51600   0.85290244     -6.44357    9.4995403  0.015341635  0.017058085            3 
   51700   0.94280043   -6.4425591    9.5244581  0.015352124   0.01705538            6 
   51800   0.95826142   -6.4032741     9.586555  0.015422386  0.017053221            3 
   51900    0.8994601   -6.4144386    9.5881139  0.015395173  0.017051658            5 
   52000   0.88290021   -6.4228316    9.5873505  0.015364344  0.017048945            3 
   52100    0.9713548   -6.4472492    9.6723139  0.015470751   0.01704702            3 
   52200   0.89926685   -6.4029664    9.7042468  0.015492092  0.017046213            5 
   52300   0.94513795    -6.427478    9.7265459  0.015498002  0.017045474            5 
   52400   0.92405266   -6.4245587    9.7123365  0.015445828  0.017044055            7 
   52500    0.9233844   -6.4357226    9.7196315  0.015427986  0.017042105            5 
   52600   0.97853548   -6.4544625     9.726772  0.015409968  0.017040238            4 
   52700   0.89230234   -6.4383306    9.7152291  0.015362475  0.017037645            5 
   52800   0.94835988    -6.474086    9.7120158  0.015328308  0.017034509            6 
   52900   0.93954746   -6.4773135    9.7502205  0.015359515  0.017031133            8 
   53000    0.9715874   -6.4516267    9.7888834  0.015391326  0.017028476            3 
   53100   0.88417945   -6.3909956    9.8554921  0.015466874  0.017026363            4 
   53200   0.91113212   -6.3858418    9.9323238  0.015558151  0.017024976            4 
   53300    0.9466531   -6.3820903    9.9754322   0.01559636  0.017024402           11 
   53400   0.93638035   -6.4314987     10.01988  0.015636516  0.017024365            7 
   53500   0.91773236   -6.4017034    10.016986  0.015602782  0.017024441            6 
   53600   0.93128616   -6.3265085    10.060132  0.015640752  0.017024754            2 
   53700   0.95081456   -6.4340093    10.046495  0.015590464  0.017024814            7 
   53800   0.91893657   -6.3912743    10.101778  0.015647116  0.017025129            2 
   53900   0.92825385   -6.3208853    10.142042  0.015680338  0.017026364            6 
   54000   0.92174852   -6.3533094     10.13031  0.015633195  0.017027138            5 
   54100   0.88580222   -6.3806451    10.166323   0.01565977  0.017027034            2 
   54200   0.91686829   -6.4361452    10.230538   0.01572961  0.017027174            2 
   54300   0.91453341   -6.3568653    10.234164  0.015706207   0.01702748            2 
   54400   0.91280428   -6.3722989    10.246984  0.015696972  0.017028242            2 
   54500   0.98981927    -6.452554    10.235726  0.015650957  0.017028699            2 
   54600   0.93817041   -6.4273395    10.214301  0.015589593  0.017028455            2 
   54700   0.93285528   -6.4105908    10.206323  0.015548938  0.017027075            4 
   54800   0.92789741   -6.3952268    10.215183  0.015534037  0.017025813            5 
   54900   0.96779087   -6.3666794    10.273411  0.015594127  0.017024886            4 
   55000   0.91644301    -6.368802    10.275348   0.01556871  0.017023958            8 
   55100   0.91734471   -6.3954166    10.356118   0.01566261    0.0170235            7 
   55200   0.92614963   -6.3338234    10.337603  0.015606284  0.017023148            4 
   55300    0.9839399    -6.344922    10.418352  0.015699746  0.017023307            3 
   55400   0.92484604   -6.3299597    10.419339  0.015672892  0.017023611            3 
   55500     0.928489   -6.3712421    10.426199  0.015654954  0.017023905            6 
   55600   0.95142849   -6.4326028    10.395617   0.01558096  0.017023813            6 
   55700   0.96573649   -6.3735682    10.430816  0.015605649  0.017023068            3 
   55800   0.91728123   -6.3582435    10.378458  0.015499488  0.017022309            3 
   55900   0.90651616   -6.4275865     10.37231  0.015462596  0.017020551            2 
   56000   0.91151426   -6.3397196     10.43261  0.015524717  0.017018287            3 
   56100   0.93953204   -6.4038867    10.451758  0.015525488  0.017016514            3 
   56200    0.8971148   -6.3886835    10.397141  0.015416875  0.017013956            3 
   56300   0.95773786   -6.4390507    10.472024  0.015500331  0.017011618            3 
   56400   0.94876207   -6.3838658    10.551051  0.015589614  0.017010178            2 
   56500    0.9494238   -6.3376827    10.489581  0.015471359   0.01700886            4 
   56600   0.91336921   -6.3488061    10.461573  0.015402787  0.017006055            4 
   56700   0.93237982   -6.4270026    10.498379  0.015429716  0.017002871           25 
   56800   0.96083071   -6.4087112    10.504341  0.015411298  0.016999845           11 
   56900   0.94698514   -6.3510997    10.523158  0.015411772  0.016996978            3 
   57000   0.96535233   -6.3672115    10.461954  0.015295254  0.016994277           14 
   57100    0.9538718   -6.3715988    10.520787  0.015354331  0.016991622            5 
   57200   0.93404225   -6.4031096    10.572532  0.015402873   0.01698853           14 
   57300   0.94061939   -6.3386192    10.631929  0.015462375  0.016986112            8 
   57400   0.92708539   -6.3445796    10.787771  0.015661688  0.016985426            7 
   57500   0.91266052   -6.3909207    10.742679    0.0155691  0.016984896           11 
   57600   0.90086425   -6.3423161    10.686017  0.015460094  0.016983156            6 
   57700   0.97502397   -6.3836348    10.766914  0.015550136  0.016981569            3 
   57800   0.92385631   -6.4083177    10.721037  0.015457089   0.01697967            2 
   57900   0.92098442   -6.3847131    10.732826  0.015447361  0.016977322            3 
   58000    0.9584996   -6.3822842     10.78772  0.015499597  0.016975213            4 
   58100   0.90900968   -6.3915853    10.843178  0.015552464   0.01697365            2 
   58200   0.92967412     -6.40205    10.832592  0.015510584  0.016971922            3 
   58300   0.95205811   -6.4566985    10.939446  0.015636716  0.016970502            3 
   58400   0.92273127   -6.4433797    10.952191  0.015628127  0.016969457            2 
   58500   0.92733302   -6.3777155    10.986704  0.015650576  0.016968216            4 
   58600   0.92502846   -6.3240987    10.963021  0.015590189  0.016966967            7 
   58700   0.96496968   -6.4152876    10.999025  0.015614742  0.016965772            8 
   58800   0.93833436   -6.4419065    11.043348  0.015651004  0.016964857            5 
   58900   0.90735237   -6.4180558    11.111109  0.015720302  0.016964255            4 
   59000   0.89808967   -6.3933006    11.117687  0.015702948  0.016963964            5 
   59100   0.87522304   -6.4255669    11.071132  0.015610733  0.016962952            4 
   59200   0.97123481   -6.4871624    11.045836  0.015548755  0.016961462            3 
   59300   0.92724492   -6.4463983    11.016473  0.015481272  0.016959413            3 
   59400   0.91839073   -6.4318192    11.069381  0.015529435  0.016957184            4 
   59500   0.96477075   -6.4784323     11.11682  0.015569775  0.016955089            4 
   59600    0.8911986   -6.4035397    11.139382  0.015575199  0.016953448            3 
   59700   0.96041344   -6.4306263    11.165574   0.01558567  0.016951927           11 
   59800   0.90120062   -6.4261193    11.150382  0.015538436  0.016950006           14 
   59900   0.94025728   -6.4503588    11.173372   0.01554448  0.016948063            8 
   60000    0.9373816   -6.3602631     11.30244  0.015697833  0.016947288            7 
   60100   0.89911171   -6.4226693    11.245998  0.015593453  0.016946313            8 
   60200   0.92723833   -6.4041478    11.251841  0.015575638  0.016945072           11 
   60300   0.88163978   -6.4211504     11.24491  0.015540229  0.016943579           17 
   60400   0.93202966   -6.4204407    11.321704  0.015620452  0.016942274           21 
   60500   0.95143619   -6.3920557    11.353914  0.015639001  0.016941268           22 
   60600   0.97345809   -6.3443705    11.359997  0.015621558  0.016940474           14 
   60700   0.93047513   -6.3644586    11.333182  0.015559008  0.016939542           14 
   60800    0.8855609    -6.390225    11.413424    0.0156434  0.016938106            7 
   60900   0.95881579   -6.4239364    11.409337  0.015612119  0.016937322            8 
   61000   0.91035584   -6.3759015    11.439274  0.015627423  0.016936408            4 
   61100   0.94187954   -6.4019125    11.476236  0.015652258  0.016935898            2 
   61200   0.93141508   -6.3045246    11.554486  0.015733232  0.016935753            2 
   61300   0.97674755   -6.3567442    11.571383  0.015730537  0.016936581            7 
   61400   0.93370275    -6.401986    11.534938  0.015655453  0.016936332            3 
   61500   0.91771575   -6.4094849     11.60473  0.015724566  0.016935875            6 
   61600   0.94782316   -6.3698012    11.673659  0.015792287    0.0169358            3 
   61700   0.91276244   -6.3797619    11.654166  0.015740365  0.016935833            3 
   61800   0.94084095   -6.3877188    11.641206  0.015697419  0.016935467            5 
   61900     0.993748   -6.3644937    11.653685   0.01568886  0.016935369            9 
   62000   0.96661759   -6.3010641    11.680122  0.015699089  0.016936175            5 
   62100   0.95018861   -6.3950976    11.734791   0.01574717  0.016936727            9 
   62200   0.94641018   -6.3287395    11.813477  0.015827273  0.016937811            6 
   62300   0.94447903   -6.3423341    11.839486  0.015836659  0.016939593            4 
   62400   0.92086631   -6.3460496    11.777234  0.015728144  0.016940391            6 
   62500   0.94076802     -6.32053     11.84319  0.015790919  0.016941092            4 
   62600   0.92732667   -6.3803327    11.868656  0.015799595  0.016941984            4 
   62700   0.93420972    -6.400627    11.822927  0.015713619  0.016941703            4 
   62800   0.93676465    -6.454828    11.843899  0.015716426   0.01694123            5 
   62900   0.96504932   -6.3867561     11.83986  0.015686089  0.016941021           16 
   63000   0.94739273   -6.4045751     11.81089   0.01562287  0.016940305           10 
   63100   0.93517144   -6.4078905    11.725271  0.015485038  0.016938837            5 
   63200   0.97424323   -6.4001805    11.786632  0.015541445  0.016937122            3 
   63300   0.93104299   -6.4025746    11.770748  0.015495983  0.016935304            6 
   63400   0.92342858   -6.4316484    11.846101  0.015570585  0.016933316            4 
   63500    0.9356068   -6.3852784    11.852856  0.015554929  0.016931336            6 
   63600   0.93487916   -6.5076202     11.86109  0.015541261  0.016928893            4 
   63700   0.93010113   -6.5196577    11.931143  0.015608507  0.016926399            7 
   63800   0.90421797   -6.4646276    11.994795  0.015667182  0.016924574            4 
   63900   0.91802734   -6.4001553    12.021151  0.015677036  0.016923469            6 
   64000   0.91658114   -6.3664315    12.063733  0.015707986   0.01692251            9 
   64100    0.9422052    -6.436444    12.019004   0.01562533  0.016921266            7 
   64200   0.91849286   -6.4217057    11.955012  0.015517928  0.016919256            6 
   64300    0.9617732   -6.4434754     11.89832  0.015420322  0.016916368            4 
   64400   0.91722218   -6.3494389    11.901627  0.015400656  0.016912794            9 
   64500   0.93387957   -6.4201395    11.890263  0.015362097  0.016909135            8 
   64600   0.96753451   -6.4317299    11.877215  0.015321485  0.016905088            3 
   64700    0.9452393   -6.3732058     12.02878  0.015493018  0.016901774            3 
   64800   0.93859604   -6.3617525    11.980766  0.015407364  0.016898568            1 
   64900   0.92963844   -6.3690455     11.96634  0.015365101  0.016894967            4 
   65000   0.92078973   -6.4579766    12.009864  0.015397261  0.016891154            3 
   65100   0.93344215   -6.3842219     12.07459  0.015456464  0.016887352            2 
   65200   0.94883054   -6.3405336    12.066582  0.015422522  0.016884335            6 
   65300    0.9179791   -6.3866127    12.075011  0.015409662  0.016880689            3 
   65400   0.92568986   -6.4028651    12.102088  0.015420601  0.016876555            3 
   65500   0.93185624   -6.4729262    12.097307  0.015390975  0.016872601            3 
   65600   0.91051111   -6.4006388    12.036219  0.015289912  0.016868026            9 
   65700   0.92791112   -6.3574397    12.021028  0.015247371  0.016863325            9 
   65800   0.92188039    -6.403688    12.048385  0.015258846  0.016858597            7 
   65900   0.92434361   -6.4143633    12.034054   0.01521757  0.016853532            3 
   66000   0.93215914   -6.3554154    12.071404  0.015241671  0.016848644            9 
   66100   0.95943799   -6.3846156    12.175536  0.015349894  0.016844517            2 
   66200   0.93304206   -6.4688569    12.160384  0.015307633  0.016840648            7 
   66300   0.88937199   -6.4067564    12.186541  0.015317422  0.016835959            1 
   66400   0.93577412   -6.3961156    12.286989  0.015420418  0.016831897            2 
   66500   0.91570464   -6.3546358    12.300337  0.015413955  0.016828189            1 
   66600   0.92901309   -6.4194894    12.298447  0.015388447  0.016824662           10 
   66700    0.9118273   -6.4306527    12.282293  0.015345194  0.016820606           12 
   66800    0.9199173   -6.3785267     12.36883  0.015430177    0.0168168            2 
   66900   0.90628297   -6.3472658    12.352627   0.01538693  0.016813388           12 
   67000   0.96960476   -6.3324092    12.388533  0.015408623  0.016809957            7 
   67100   0.95981479   -6.3874093    12.322211  0.015303293  0.016806222            4 
   67200   0.92809857   -6.3808578    12.343411   0.01530681   0.01680202            4 
   67300   0.91111672   -6.4067317    12.315316  0.015249277  0.016797482           12 
   67400   0.94914038   -6.4043527    12.322421  0.015235436  0.016792769            3 
   67500   0.92754175    -6.318158    12.391703  0.015298398  0.016788811            6 
   67600    1.0060187   -6.3636688    12.483588  0.015389038  0.016785384            7 
   67700   0.94307608   -6.3823792    12.431715  0.015302455   0.01678152            3 
   67800   0.94093546   -6.3915378    12.413245  0.015257184  0.016777307            2 
   67900    0.9274576   -6.4341194    12.403252  0.015222449  0.016772998            5 
   68000   0.98022818   -6.4666633    12.420866   0.01522165  0.016768266            5 
   68100   0.93905852   -6.3938748    12.418828  0.015196803  0.016763416            8 
   68200   0.98967397   -6.3710475    12.503014  0.015277387  0.016759133            8 
   68300   0.93698133   -6.3838558    12.498299  0.015249267  0.016754957            4 
   68400   0.94073754   -6.4037186    12.494712  0.015222602   0.01675023           13 
   68500   0.89747484   -6.4222405    12.498126  0.015204533  0.016744968           17 
   68600   0.89948776   -6.4635677    12.461353  0.015137698  0.016738976           17 
   68700   0.92246689   -6.4130738    12.564166  0.015240376  0.016733411            7 
   68800   0.91831454   -6.3985639    12.554794  0.015206872  0.016727922            6 
   68900   0.95585126   -6.3757474    12.572826  0.015206611  0.016722289            3 
   69000   0.90211671   -6.3972121     12.50792  0.015106183  0.016716674            8 
   69100   0.88320625   -6.3979517    12.548625  0.015133411  0.016710501            5 
   69200   0.94758976   -6.3963551    12.639466  0.015220936  0.016704788            4 
   69300   0.93958322   -6.3990151    12.672327  0.015238488  0.016699677            3 
   69400   0.91518506   -6.4633652    12.692016  0.015240173  0.016694466            4 
   69500   0.92301572   -6.4682839    12.727435  0.015260713  0.016689317            2 
   69600   0.91688802   -6.4625612    12.756518  0.015273608  0.016684811            4 
   69700   0.92262219   -6.3723784    12.790526  0.015292355    0.0166809            3 
   69800   0.96171745   -6.3871088     12.82161  0.015307557  0.016677394            3 
   69900   0.90330614   -6.4063463    12.778584  0.015234363  0.016673605            2 
   70000   0.97367929   -6.4294015    12.816135  0.015257303  0.016669522            4 
   70100   0.92581072   -6.3579312    12.832287  0.015254739  0.016665577            7 
   70200    0.8950104   -6.3567994    12.812032  0.015208965  0.016661321           10 
   70300   0.98770637   -6.3955006    12.864803  0.015249885  0.016657104            4 
   70400   0.95997181   -6.4201307     12.90732  0.015278552  0.016653153            6 
   70500    0.8960115   -6.4099162    12.940733  0.015296374   0.01664918            3 
   70600   0.96442676   -6.4495668    12.942697  0.015277027   0.01664516           12 
   70700   0.91218216   -6.3941742    12.994915  0.015316967  0.016641291            1 
   70800   0.95303809   -6.3593952    13.071873  0.015385914  0.016637871            3 
   70900   0.97620146   -6.4272444    13.079337  0.015372987  0.016635154            9 
   71000     0.921163   -6.4084569     13.03728  0.015301971  0.016631551            3 
   71100   0.98154837   -6.3914853    13.043589  0.015287844  0.016627978            9 
   71200   0.98798017   -6.3044244    13.092926  0.015324118  0.016625075           10 
   71300   0.93284322   -6.3601249    12.990383  0.015182776  0.016621385            9 
   71400   0.95607994   -6.3829996    13.088024  0.015275471  0.016617876            7 
   71500   0.92292534    -6.424045    13.212139  0.015398764  0.016614979            8 
   71600   0.93010032   -6.4338534    13.297161  0.015476211  0.016612691            8 
   71700   0.96185189   -6.4220019    13.380778  0.015551811  0.016611386            6 
   71800   0.88519014    -6.408778    13.458819  0.015620728  0.016610059            4 
   71900    0.9237241   -6.4194219    13.501286  0.015648222  0.016609381            2 
   72000   0.93998104   -6.3837216    13.560244  0.015694727  0.016609246            6 
   72100   0.94540042   -6.3570284    13.570113  0.015684366  0.016609033            7 
   72200   0.90988324    -6.338808    13.595899  0.015692404  0.016608934            5 
   72300   0.89743314   -6.3548641    13.598361  0.015673538  0.016608846            5 
   72400   0.92254833   -6.3835986    13.522921  0.015565056  0.016607994            5 
   72500   0.97173563   -6.3540698    13.581287  0.015610675  0.016607352            5 
   72600   0.95950173   -6.3890273    13.602727  0.015613782  0.016606776            5 
   72700   0.95327853   -6.3848208    13.581274  0.015567715  0.016606269            5 
   72800   0.91226233   -6.4237942    13.557297  0.015518884  0.016605392            7 
   72900   0.91855887   -6.3787431    13.677666  0.015635192  0.016604476            5 
   73000   0.94328371   -6.3980896    13.791276  0.015743466  0.016604534            2 
   73100   0.85542689   -6.3664477    13.822349  0.015757352  0.016604931            8 
   73200   0.89972248   -6.4666736    13.748561  0.015651822  0.016604437            4 
   73300   0.94979127   -6.4980549    13.757669  0.015640824   0.01660365            3 
   73400   0.95752611   -6.4544653    13.804652  0.015672856  0.016603065            6 
   73500   0.94908829   -6.4670429    13.780864  0.015624562  0.016602198            6 
   73600   0.92064318    -6.464653    13.809065  0.015635263  0.016601381            8 
   73700   0.91760068   -6.3857832    13.835105  0.015643492  0.016600553            3 
   73800    0.9194091   -6.4043284    13.836942   0.01562437  0.016599809            3 
   73900   0.92557506    -6.425686    13.812616  0.015575796  0.016598908            3 
   74000   0.95565108    -6.362836     13.91395  0.015668863  0.016598069           14 
   74100   0.94592469   -6.3976079    13.870152  0.015598462  0.016597637            7 
   74200   0.91637239    -6.385701    13.829376  0.015531644  0.016596346            4 
   74300   0.95793277   -6.3563064    13.908113   0.01559905  0.016595558            4 
   74400   0.92151046   -6.2990241    13.854867  0.015518445  0.016594751            4 
   74500   0.93495566   -6.3228742    13.891393  0.015538471  0.016593907            2 
   74600   0.94041051   -6.3337414    14.060136   0.01570614  0.016593594            3 
   74700   0.92283778    -6.344579    14.096966    0.0157262  0.016593656            3 
   74800   0.97385337   -6.3181442    14.152276  0.015766795  0.016593738            4 
   74900   0.91321945   -6.3215437    14.099516  0.015687045  0.016593806            1 
   75000   0.94971362   -6.3615767    14.128349  0.015698165  0.016593797            3 
   75100    1.0025779   -6.3159473    14.232689  0.015793041  0.016594185            4 
   75200   0.94006919   -6.2411986    14.134511  0.015663243  0.016594919            9 
   75300   0.97245759   -6.3378133    14.178158  0.015690746   0.01659527            9 
   75400   0.94115938   -6.3958481    14.211153  0.015706402  0.016595312            4 
   75500   0.96003479   -6.3648651    14.239106  0.015716452  0.016595551            4 
   75600   0.90379838   -6.4027585    14.268612  0.015728188  0.016595712            4 
   75700   0.95132992   -6.4074795    14.347768  0.015794549  0.016595903            7 
   75800   0.95408517   -6.3463689    14.338039  0.015763015  0.016596317            6 
   75900   0.92776997   -6.3684485    14.375893  0.015783809   0.01659658            2 
   76000   0.92412672   -6.3832154    14.439853  0.015833172  0.016597042            1 
   76100   0.93407752   -6.4017709    14.419497  0.015790076  0.016597531            2 
   76200   0.95615196   -6.3709559    14.399093  0.015747039  0.016597901            7 
   76300   0.94513157   -6.3971839    14.347764  0.015670341  0.016597929            1 
   76400   0.93010489    -6.458484    14.324188  0.015624114  0.016597502            7 
   76500   0.93929092   -6.4307159    14.271459  0.015546251  0.016596144            2 
   76600   0.95567711   -6.3416997    14.357818  0.015619906  0.016595446            2 
   76700   0.96817705   -6.4185175    14.367252  0.015609791  0.016594887            4 
   76800   0.94461243   -6.3942858    14.350541  0.015571333  0.016594174            2 
   76900   0.93009036   -6.3483903    14.450898  0.015659837  0.016593527            2 
   77000   0.94540715   -6.3468609    14.535369  0.015730918  0.016593342            5 
   77100   0.92269132   -6.3681309    14.503863  0.015676462   0.01659295            2 
   77200   0.91774374   -6.4715376    14.440545  0.015587807  0.016592047            8 
   77300   0.87536497   -6.4232653    14.479178   0.01560929  0.016590401            8 
   77400   0.92133584   -6.3832742    14.552854  0.015668448  0.016589453            7 
   77500   0.91234268   -6.3452687    14.547599  0.015642579  0.016588688           10 
   77600   0.90725557   -6.4039487    14.572517   0.01564918   0.01658788            3 
   77700   0.85028463   -6.4000141    14.538407  0.015592457  0.016586358            4 
   77800   0.97517894   -6.4454566    14.575411  0.015612051  0.016584747            9 
   77900   0.88645749   -6.4073556    14.570895  0.015587179  0.016583328            3 
   78000   0.94378445   -6.3795931    14.611648  0.015610735  0.016581527            4 
[...]
   82800   0.90665754   -6.4317679     15.61917  0.015719776  0.016539624            3 
   82900   0.92558982   -6.3893214    15.765762  0.015848172  0.016539159            3 
   83000   0.91804093   -6.3698731    15.653954  0.015716822  0.016538773            3 
   83100   0.90305163   -6.3750253    15.538663  0.015582293  0.016537659            2 
   83200   0.93417651   -6.4254865     15.58676  0.015611739  0.016536149            4 
   83300    0.9186625     -6.45531    15.581581  0.015587816  0.016534882            8 
   83400   0.94846336   -6.4302336    15.614396  0.015601914  0.016533467            5 
   83500   0.92318276   -6.3255643    15.599578  0.015568441  0.016532352            4 
   83600    1.0108865     -6.38925      15.6279   0.01557805  0.016531155           16 
   83700   0.93717248   -6.3954617    15.625161  0.015556711  0.016529742            4 
   83800   0.92640946    -6.395625     15.64435  0.015557229  0.016528199            7 
   83900   0.90706128   -6.4241263    15.702746  0.015596688  0.016526516            9 
   84000   0.90918211   -6.4159805    15.762782  0.015637681   0.01652488            9 
   84100   0.92843388   -6.3722086    15.893995  0.015749103  0.016523715            4 
   84200   0.95422003   -6.3994779    15.852662  0.015689491  0.016522875            3 
   84300   0.91682406   -6.4216625    15.860811  0.015678935  0.016521874            1 
   84400   0.93602138   -6.3507685    15.861448  0.015660987  0.016520956            3 
   84500   0.96877947   -6.3230353    15.939854  0.015719777  0.016520462            7 
   84600   0.93810756   -6.3881876    15.892872  0.015654917  0.016519805            4 
   84700   0.92735164    -6.418583    15.844771  0.015589109  0.016518675            9 
   84800   0.92527468   -6.3287627    15.904064  0.015628994  0.016517513            7 
   84900   0.92711247   -6.4012814    15.904368  0.015610883  0.016516478            4 
   85000   0.94716746   -6.3853085    15.885042  0.015573571  0.016515537            2 
   85100    1.0116324   -6.3939844    15.946937   0.01561588  0.016514687            4 
   85200   0.94177886   -6.3546378    16.015217  0.015664335  0.016514048            5 
   85300   0.93259888   -6.3953652    16.010875   0.01564173  0.016513408            3 
   85400   0.90437279   -6.4195683    15.948325  0.015562378  0.016512018            5 
   85500   0.93656774   -6.3723496    16.012738  0.015606957  0.016510743            4 
   85600   0.93241961   -6.3986003    15.967139  0.015544333  0.016509084            2 
   85700    0.9229045    -6.428811    15.994834  0.015553125  0.016507194            6 
   85800   0.90076071   -6.4031217    16.067134   0.01560522  0.016505478            3 
   85900   0.96129526   -6.3872951    16.112609  0.015631169   0.01650404            2 
   86000   0.92132232   -6.3846098    16.072092  0.015573732  0.016502346            2 
   86100   0.94236985   -6.4500671    16.060992  0.015544901  0.016500643            1 
   86200    0.8846693   -6.4389568    16.020081  0.015487317  0.016498502            5 
   86300   0.93652114   -6.4326471    16.085654   0.01553269   0.01649625            6 
   86400   0.91143711   -6.3364819    16.159004  0.015585459  0.016494714            4 
   86500   0.98859969   -6.3377172    16.197605  0.015604629  0.016493352            3 
   86600   0.93052827   -6.3615939    16.200781  0.015589666  0.016492185            7 
   86700   0.91383323   -6.3955846    16.182343  0.015553963  0.016490591            4 
   86800   0.87521658   -6.4254448     16.11288  0.015469355  0.016488267            2 
   86900   0.91986805   -6.4102841    16.203968  0.015538903  0.016486089            1 
   87000   0.95111557   -6.3987936    16.271327  0.015585562  0.016484458            2 
   87100   0.93036302   -6.3987153    16.310967  0.015605594  0.016483223            5 
   87200   0.92998437   -6.4071135     16.24165  0.015521455  0.016481868            3 
   87300   0.95535165   -6.3396505    16.336435  0.015594153  0.016480951            6 
   87400    0.9431894   -6.3547471    16.454334  0.015688724  0.016480387            7 
   87500     0.959109   -6.3995851    16.396205  0.015615433   0.01647974            3 
   87600   0.95111178   -6.4379669    16.374311   0.01557678  0.016478581            3 
   87700   0.97247978   -6.3695118    16.462806  0.015643107  0.016477505            3 
   87800   0.97987881   -6.3940427    16.465887  0.015628215  0.016477053            6 
   87900   0.95409921   -6.4204624    16.437479  0.015583503  0.016476094            5 
   88000   0.95067026   -6.4238209    16.555501  0.015677557  0.016475402            2 
   88100   0.92467437   -6.4463817    16.515207  0.015621649  0.016474517            3 
   88200   0.87706825   -6.4385638    16.560531   0.01564676  0.016473463            2 
   88300   0.92716289   -6.4322212    16.638145  0.015702288  0.016472649            3 
   88400   0.94527095   -6.4340806    16.634657  0.015681238  0.016471836            8 
   88500   0.95067772   -6.4049265    16.651206  0.015679101  0.016471092           14 
   88600   0.92708838   -6.4242889    16.576014  0.015590682  0.016470261            4 
   88700   0.92656565   -6.4383956    16.656618  0.015648833  0.016469297           14 
   88800   0.93193055   -6.4052488    16.702741  0.015674494  0.016468685            5 
   88900   0.98346409   -6.4127798    16.742054  0.015693714  0.016467815            7 
   89000   0.87646654   -6.3660499    16.725479   0.01566056  0.016466993            4 
   89100   0.92123808   -6.4274311    16.833474  0.015743989  0.016466035            2 
   89200    0.9761267   -6.4078946    16.994328  0.015876614  0.016465962            5 
   89300   0.90637797   -6.3821164    16.947016  0.015814684  0.016465866            6 
   89400   0.90482798   -6.3811224    16.912781  0.015765083  0.016465483            5 
   89500   0.92011046    -6.398687    16.900329  0.015735874  0.016464889           10 
   89600     0.962579   -6.4352707    16.856997  0.015678011  0.016464267            2 
   89700    0.8724905   -6.4013148    16.897576  0.015698231  0.016463607            8 
   89800   0.90949675   -6.4035064    17.005751  0.015781135  0.016463115            2 
   89900   0.90575649   -6.4057352      17.0385  0.015793937  0.016462802            4 
   90000   0.90208579   -6.4537047    17.020611  0.015759825  0.016462453            7 
   90100   0.84561352   -6.3853602    17.062434  0.015781016   0.01646197            3 
   90200   0.92238495   -6.3837334    17.131255  0.015827102  0.016462166            2 
   90300    0.8836875   -6.3806393    17.233401   0.01590384  0.016462395            2 
   90400   0.94797559   -6.3752424    17.283768  0.015932677  0.016462911            1 
   90500   0.90539041   -6.3872683    17.214931  0.015851686  0.016463325            3 
   90600   0.94046291   -6.3539466    17.211449  0.015830987  0.016463489            6 
   90700   0.96953196   -6.3507279    17.183427  0.015787786  0.016464006            6 
   90800   0.94147022   -6.3615064    17.206013  0.015791128  0.016464474            4 
   90900   0.92080595   -6.3904072     17.25177  0.015815704  0.016464822            4 
   91000   0.92175456   -6.4474253    17.205505  0.015755957  0.016464625            1 
   91100    0.9118047    -6.353895     17.34056  0.015862202  0.016464504            6 
   91200   0.94378878   -6.3635684    17.311476  0.015818234  0.016464665            6 
   91300   0.95352009   -6.4322301    17.285483  0.015777184  0.016464638           10 
   91400   0.87470769   -6.3737017    17.369411  0.015836443  0.016464579            5 
   91500   0.88209269   -6.3372579    17.448502  0.015891167  0.016464815            4 
   91600   0.95873002   -6.3643801    17.507548  0.015927536  0.016465439            4 
   91700    0.9227481   -6.3911164    17.515414  0.015917316  0.016466077            4 
   91800   0.92146372   -6.4255425     17.45853  0.015848339  0.016466261            4 
   91900    0.8982217   -6.4291529     17.38106  0.015760845   0.01646598            5 
   92000   0.92499772   -6.3554952    17.465538  0.015820234  0.016465797            3 
   92100   0.91783526    -6.355743    17.480903  0.015816959  0.016466136            2 
   92200   0.94599608   -6.4541832    17.411753  0.015737304  0.016465927            1 
   92300   0.92751209   -6.3230175    17.528511  0.015825669  0.016465731            3 
   92400   0.91658704   -6.3602991    17.565161  0.015841595  0.016466015            1 
   92500    0.9294969   -6.3865658    17.599183  0.015855119  0.016466106            3 
   92600   0.92261772   -6.4239716    17.583823  0.015824175   0.01646616            3 
   92700   0.90413629   -6.4408471     17.58762  0.015810518  0.016465807            2 
   92800   0.89584163   -6.3422432    17.765698  0.015953393  0.016466009            2 
   92900   0.92433819   -6.4135727     17.62556  0.015810513  0.016466008            2 
   93000   0.91352183   -6.3657054    17.596896  0.015767827  0.016465636            2 
   93100   0.92601624   -6.4485366     17.59929  0.015753034  0.016465356            2 
   93200   0.93071334   -6.4139038    17.587523  0.015725611  0.016465072            6 
   93300   0.93591163    -6.350821    17.658918  0.015772524  0.016464979            5 
   93400   0.94985272   -6.3739262    17.654914  0.015752065  0.016464903            3 
   93500   0.88234244   -6.3891396    17.729508    0.0158017  0.016464841            5 
   93600   0.93093576   -6.4327745    17.721289  0.015777501  0.016464444            5 
   93700   0.93295245   -6.3658422    17.820718  0.015849091  0.016464455            4 
   93800   0.95053017   -6.4131933    17.796502  0.015810681  0.016464509            4 
   93900    0.9540605   -6.3822598    17.834603  0.015827656  0.016464789           10 
   94000   0.97107653   -6.2861391    17.843649  0.015818837  0.016465456            9 
   94100   0.95912355   -6.3661199    17.893702  0.015846353  0.016466312            4 
   94200   0.97815012   -6.3551383    17.954963  0.015883725  0.016467163            8 
   94300   0.93361122   -6.3346872    17.974154   0.01588384  0.016467898           14 
   94400   0.96822041    -6.449188    17.968881   0.01586236  0.016468183           14 
   94500   0.93304119   -6.4864664     17.95137  0.015830132  0.016468141           20 
   94600   0.94057071   -6.3939763    17.889023  0.015758477  0.016468067           11 
   94700    0.9040517   -6.3862041    17.877364  0.015731577  0.016467661            5 
   94800   0.95844205   -6.3998835    17.878093  0.015715623  0.016467148           16 
   94900   0.94043143   -6.3430968    17.867534  0.015689791  0.016466639           21 
   95000   0.95988711   -6.4526631    17.900143   0.01570188  0.016466177           14 
   95100   0.90805644   -6.3622886    17.939681  0.015720015  0.016465787           12 
   95200   0.95674217   -6.4436829    17.967942   0.01572824  0.016465541           16 
   95300   0.89496664   -6.4280113    17.979618  0.015721946  0.016464985           11 
   95400   0.95867401   -6.4053179    18.032261  0.015751451  0.016464451            6 
   95500   0.90523453   -6.4161712    18.052492   0.01575261   0.01646388            3 
   95600   0.94176579   -6.4626485     18.05765  0.015740629  0.016463312           22 
   95700   0.92850678   -6.4304045    18.111384  0.015770972  0.016462741            9 
   95800   0.90035797   -6.3690832    18.081965  0.015728919  0.016461998           20 
   95900   0.93818382   -6.3880104      18.0428  0.015678485  0.016461249           25 
   96000   0.93904109   -6.3724794    18.041263  0.015660819  0.016460495           49 
   96100   0.93306365   -6.4252531     17.98535  0.015596037  0.016459367           10 
   96200   0.90849286   -6.5053884    18.048502   0.01563453  0.016457787           11 
   96300    0.9163293   -6.4348738    18.127834  0.015686945  0.016456244            9 
   96400   0.95378541   -6.4262576    18.286122  0.015807505  0.016455474            8 
   96500   0.89419405   -6.4360818    18.236817  0.015748546  0.016454776           15 
   96600   0.92263563   -6.4972336    18.297431  0.015784533  0.016453838           13 
   96700   0.89526209   -6.4159235    18.343467  0.015807883  0.016453337            4 
   96800   0.90190024   -6.3935576     18.37263  0.015816658  0.016452992            4 
   96900   0.93179767   -6.4240344    18.367509  0.015795931  0.016452459            4 
   97000   0.92646676   -6.4169892     18.22276  0.015655292  0.016451722            9 
   97100   0.91109392   -6.4404072    18.316527  0.015719642  0.016450852            4 
   97200   0.92244462   -6.3839624     18.45016  0.015818038  0.016450333            6 
   97300   0.94190519   -6.3187998    18.380901  0.015742464  0.016450183            6 
   97400   0.91213606   -6.3903215    18.361492  0.015709695  0.016449648            6 
   97500   0.93426889   -6.3526675    18.455753  0.015774148  0.016449188            2 
   97600   0.96226765   -6.4028659    18.402163   0.01571223  0.016448868            7 
   97700   0.94454706   -6.3874993    18.451372   0.01573812  0.016448559            2 
   97800   0.90874197   -6.4205431    18.518667  0.015779368  0.016448172            5 
   97900   0.93608398   -6.4617067     18.45866  0.015712172  0.016447471            6 
   98000   0.92892919   -6.3659365    18.561168  0.015783306  0.016447048            3 
   98100   0.91774676   -6.4248171    18.583959  0.015786577  0.016446603            4 
   98200   0.90971599    -6.464228    18.469548  0.015673411  0.016445684            6 
   98300   0.92330814   -6.3975195    18.523484  0.015703191    0.0164447            5 
   98400   0.92628994   -6.3727769    18.462521  0.015635603  0.016443801            6 
   98500   0.86016261   -6.4160097    18.439236   0.01560003  0.016442544            2 
   98600   0.90384375    -6.406163    18.431461  0.015577638  0.016440876            9 
   98700   0.93974609    -6.392852    18.587126  0.015693284  0.016439471           13 
   98800    0.9201623   -6.3744462    18.653178  0.015733113   0.01643846            2 
   98900     0.898392    -6.467161    18.553507  0.015633221  0.016436852           14 
   99000    0.9263079   -6.4166946    18.550803  0.015615154  0.016435152            6 
   99100   0.93955751   -6.3574918    18.570438  0.015615908  0.016433862            1 
   99200   0.89967716    -6.409594    18.584288  0.015611801  0.016432339            5 
   99300   0.90353056   -6.3724487     18.67079  0.015668672  0.016430978            7 
   99400   0.93767838   -6.3594838       18.739  0.015710094  0.016430094            3 
   99500   0.93772606   -6.4438966     18.69996  0.015661608  0.016429201            6 
   99600   0.91367517   -6.4459207    18.728875  0.015670076   0.01642818            7 
   99700   0.94287461   -6.3751034    18.777027  0.015694606   0.01642713           10 
   99800    0.9420112   -6.4398636    18.846116   0.01573657  0.016426268           14 
   99900   0.92794017   -6.4423077    18.792444  0.015676046  0.016425103            3 
  100000   0.88562174   -6.4140241    18.792445  0.015660371  0.016423741            4 
  100100   0.96693359   -6.4800466    18.786057  0.015639408  0.016422509           16 
  100200    0.8876513   -6.4075342    18.807808  0.015641889  0.016421074           12 
  100300   0.94618657   -6.4226261    18.751427  0.015579451  0.016419368            3 
  100400   0.88448833   -6.4377079    18.757415  0.015568903  0.016417444            4 
  100500    0.8930595   -6.4090722    18.810985  0.015597832  0.016415287            3 
  100600   0.94625144   -6.4011941    18.813588  0.015584483  0.016413323           11 
  100700   0.92801909   -6.4428735    18.781154  0.015542166  0.016411302            7 
  100800   0.90359206   -6.4507149    18.720041  0.015476224  0.016409056           10 
  100900   0.93072446   -6.3823383    18.848168  0.015566706  0.016407012           10 
  101000   0.95024798   -6.3854519    18.886204  0.015582676  0.016405396            5 
  101100   0.90458746   -6.3942229    18.824078  0.015516055  0.016403692            8 
  101200   0.98427223   -6.4717508    18.834962  0.015509685  0.016401952           14 
  101300   0.91598054   -6.3841506    18.864655  0.015518801  0.016400171            8 
  101400   0.96988715   -6.3671455    18.956953   0.01557935  0.016398777           13 
  101500    0.9427624   -6.3582197    18.914273  0.015528959  0.016397529           14 
  101600   0.94255756   -6.4170361    18.927153  0.015524239  0.016396052            6 
  101700   0.94376156   -6.3751804    19.018056  0.015583461  0.016394906            9 
  101800   0.94079222   -6.4270963    19.070567  0.015611139   0.01639379            5 
  101900    0.9510798   -6.4088193    19.139723  0.015652374  0.016392781            7 
  102000   0.91033612   -6.3872099    19.080068  0.015588291  0.016391796            8 
  102100   0.97727873   -6.4119129    19.001051   0.01550853  0.016390364            2 
  102200   0.96065032   -6.4451366    19.089777  0.015565702  0.016389183            5 
  102300   0.96564743   -6.3395534    19.100487   0.01555921  0.016388065           10 
  102400   0.93384287   -6.3489266    19.159395  0.015591955  0.016387208            6 
  102500   0.90529635   -6.3844184    19.096634  0.015525718  0.016385863            4 
  102600   0.94961218   -6.3652218    19.167253  0.015567944  0.016384415            3 
  102700     0.919429   -6.3273435    19.180099  0.015563209  0.016383164            3 
  102800   0.95362756   -6.3364874    19.230412  0.015588856  0.016381853            3 
  102900   0.93009024   -6.3981398      19.3083  0.015636783  0.016380644            3 
  103000   0.97684513   -6.4045859    19.366857  0.015668978  0.016379584            4 
  103100   0.89148256   -6.3600484    19.324295  0.015619379  0.016378358            2 
  103200   0.91826232   -6.3949622    19.309795  0.015592535  0.016376729            4 
  103300   0.91113532    -6.346816    19.344771  0.015605656  0.016375149            3 
  103400   0.89183203   -6.4027417    19.292632  0.015548543  0.016373334            3 
  103500   0.95110735   -6.3667728    19.389523  0.015611532  0.016371568            7 
  103600   0.94131872   -6.4159648    19.238829  0.015475249  0.016369739            5 
  103700   0.94561886   -6.4373211    19.105444  0.015353137  0.016367401            3 
  103800   0.90478438   -6.3746239    19.223318  0.015432978  0.016364952            4 
  103900   0.94377195   -6.4442567    19.271498  0.015456768   0.01636273            4 
  104000   0.92338007   -6.4396671    19.268379  0.015439406  0.016360272            4 
Loop time of 190.459 on 12 procs for 100000 steps with 864 atoms

Performance: 90727.979 tau/day, 525.046 timesteps/s
99.4% CPU use with 12 MPI tasks x no OpenMP threads

MPI task timing breakdown:
Section |  min time  |  avg time  |  max time  |%varavg| %total
---------------------------------------------------------------
Pair    | 9.3917     | 10.098     | 10.847     |  13.2 |  5.30
Neigh   | 0.97924    | 1.0225     | 1.0879     |   3.1 |  0.54
Comm    | 7.4858     | 8.4575     | 9.3424     |  16.4 |  4.44
Output  | 1.9705     | 1.9715     | 1.9788     |   0.2 |  1.04
Modify  | 166.82     | 167.12     | 167.5      |   1.7 | 87.75
Other   |            | 1.789      |            |       |  0.94

Nlocal:        72.0000 ave          77 max          65 min
Histogram: 1 0 1 1 2 0 2 2 1 2
Nghost:        1555.00 ave        1580 max        1531 min
Histogram: 2 0 2 0 1 1 3 1 1 1
Neighs:        8057.50 ave        8800 max        6986 min
Histogram: 1 0 0 3 1 2 1 0 1 3
FullNghs:      16115.2 ave       17137 max       14497 min
Histogram: 1 0 1 1 2 0 1 3 1 2

Total # of neighbors = 193383
Ave neighs/atom = 223.82292
Neighbor list builds = 5368
Dangerous builds = 0

#clear
#
#next RN
#
#jump SELF



Total wall time: 0:03:11
