
units lj                  # Use reduced LJ style units
atom_style atomic         # Uncharged point particles
atom_modify map hash      # Needed for indexing of clusters etc
                          # Used to be able to find where atoms are in relation to each other.

# Define a lattice with which to populate the simulation cell. With units
# set to 'lj' the second argument to the lattice command is the reduced
# density rho* and the spacings are multiples of that required to acheive
# that density. Also define a simulation cell called 'box' in lattice units
# and fill it with atoms. Here we're creating a box which is ten lattice
# constants in each direction.
lattice fcc 1.0 spacing 1 1 1                 # All equal sizes - gives the right reduced density.
Lattice spacing in x,y,z = 1.5874011 1.5874011 1.5874011

region box block 0 6 0 6 0 6 units lattice # Defines a region, "box", in lattice units
create_box 1 box                              # Creates a simulation box as specified above,
Created orthogonal box = (0.0000000 0.0000000 0.0000000) to (9.5244063 9.5244063 9.5244063)
  2 by 2 by 3 MPI processor grid
                                              # with one type of atom
create_atoms 1 box                            # Creates particles on lattice points
Created 864 atoms
  using lattice units in orthogonal box = (0.0000000 0.0000000 0.0000000) to (9.5244063 9.5244063 9.5244063)
  create_atoms CPU = 0.001 seconds


# Set the mass of the first (and only) atom type.
mass 1 1.0

# Lennard-Jones interactions between particles, 3.5 sigma cut-off. Apply
# long range tail corrections to energy and pressure and set all coefficients
# to unity since we work in reduced units here. Note that this doesn't shift
# the potential such that it goes to zero at the cutoff. That would require
# pair_modify('shift', 'yes').
pair_style lj/cut  3.5      # non-GPU version
pair_modify tail  yes
pair_coeff 1  1  1.0  1.0   # Intearaction between 1 and 1 set with epsilon = 1 and sigma = 1

write_data data.*
System init for write_data ...
Neighbor list info ...
  update every 1 steps, delay 10 steps, check yes
  max neighbors/atom: 2000, page size: 100000
  master list distance cutoff = 3.8
  ghost atom cutoff = 3.8
  binsize = 1.9, bins = 6 6 6
  1 neighbor lists, perpetual/occasional/extra = 1 0 0
  (1) pair lj/cut, perpetual
      attributes: half, newton on
      pair build: half/bin/atomonly/newton
      stencil: half/bin/3d
      bin: standard

#############################
#   M E L T   S Y S T E M   #
#############################

velocity all create 2.4 2750902 mom yes dist gaussian # Assign velocities
                                                    # Temperature 2.4, random number seed, zero linear momentum
						                                                        # Gaussian distribution

timestep 0.002   # simulation timestep
thermo 100       # output thermodynamic data every 100 steps

# Define a fix  in this case with index 1 applied to all
# particles in the simulation. This fix is for simulations
# in the anisotropic NPT ensemble. Note that we use the MTK
# correction.
fix 1 all npt temp 2.4 2.4 0.1 iso 5.68 5.68 0.5 mtk yes tchain 5 pchain 5 # Use NPT ensemble
                                                                         # Set temperature and pressure and damping
                                                                         # Numbers of thermostats in chain and in barostat
run 1000         # run for 10000 steps
Per MPI rank memory allocation (min/avg/max) = 3.633 | 3.633 | 3.634 Mbytes
Step Temp E_pair E_mol TotEng Press Volume 
       0          2.4   -8.3859253            0    -4.790092     -2.24275          864 
     100    1.3007594   -6.4407842            0   -4.4919034    5.3582762    891.69205 
     200    1.5828213   -6.0796178            0   -3.7081338    6.4338598    907.46239 
     300    1.7629056     -5.73851            0   -3.0972122    5.5953229    954.02439 
     400    1.8733232   -5.2785237            0   -2.4717912    6.0585808    994.36537 
     500      2.02574   -4.9360708            0   -1.9009777    5.7478153    1042.8978 
     600    2.2112838   -4.6895875            0   -1.3765009    5.7138268    1079.0368 
     700    2.3146746   -4.4629638            0  -0.99497044    5.6088298    1118.0222 
     800    2.4734008     -4.39503            0   -0.6892229    5.7937797    1123.7282 
     900    2.4206618   -4.2767239            0  -0.64993368    5.5531987    1146.9555 
    1000    2.3618098   -4.2459295            0  -0.70731524    5.7000582    1143.3852 
Loop time of 0.178569 on 12 procs for 1000 steps with 864 atoms

Performance: 967693.701 tau/day, 5600.079 timesteps/s
99.5% CPU use with 12 MPI tasks x no OpenMP threads

MPI task timing breakdown:
Section |  min time  |  avg time  |  max time  |%varavg| %total
---------------------------------------------------------------
Pair    | 0.067115   | 0.079161   | 0.093613   |   2.9 | 44.33
Neigh   | 0.01185    | 0.013377   | 0.015153   |   0.8 |  7.49
Comm    | 0.052769   | 0.068854   | 0.08226    |   3.4 | 38.56
Output  | 0.00017427 | 0.00017833 | 0.0002003  |   0.0 |  0.10
Modify  | 0.015051   | 0.015427   | 0.015858   |   0.2 |  8.64
Other   |            | 0.001571   |            |       |  0.88

Nlocal:        72.0000 ave          80 max          66 min
Histogram: 2 1 2 2 1 0 2 0 0 2
Nghost:        1314.75 ave        1327 max        1295 min
Histogram: 1 0 0 2 3 0 0 1 2 3
Neighs:        6211.67 ave        7136 max        5326 min
Histogram: 2 0 0 2 1 4 1 0 0 2

Total # of neighbors = 74540
Ave neighs/atom = 86.273148
Neighbor list builds = 80
Dangerous builds = 2

# Equilibrate just above the melting temperature to avoid step fn in T

fix 1 all npt temp 1.25 1.25 0.1 iso 5.68 5.68 0.5 mtk yes tchain 5 pchain 5
run 1000
Per MPI rank memory allocation (min/avg/max) = 3.634 | 3.634 | 3.634 Mbytes
Step Temp E_pair E_mol TotEng Press Volume 
    1000    2.3618098   -4.2459295            0  -0.70731524    5.7000582    1143.3852 
    1100    1.8617945   -4.5967525            0    -1.807293    5.9593679    1083.5566 
    1200      1.66126   -5.0091582            0   -2.5201524    5.9308167    1028.0056 
    1300    1.4533368   -5.3154554            0   -3.1379734    5.5185254    997.93023 
    1400    1.3100587   -5.5224566            0    -3.559643    5.2858775     978.0358 
    1500    1.3306301   -5.7450087            0   -3.7513736    5.2687861    956.68836 
    1600    1.2302857    -5.777427            0   -3.9341343     5.385203    950.58576 
    1700    1.2545134   -5.8251615            0   -3.9455694    5.6370291    940.07281 
    1800    1.2669685   -5.8434457            0   -3.9451925    6.1076728    931.13358 
    1900    1.2975362   -5.8185374            0   -3.8744858    5.5765884    942.23221 
    2000    1.2225624   -5.8503078            0   -4.0185867    5.1330896    948.19804 
Loop time of 0.153574 on 12 procs for 1000 steps with 864 atoms

Performance: 1125193.805 tau/day, 6511.538 timesteps/s
99.7% CPU use with 12 MPI tasks x no OpenMP threads

MPI task timing breakdown:
Section |  min time  |  avg time  |  max time  |%varavg| %total
---------------------------------------------------------------
Pair    | 0.071271   | 0.076002   | 0.080135   |   1.0 | 49.49
Neigh   | 0.0099451  | 0.010605   | 0.011092   |   0.3 |  6.91
Comm    | 0.046503   | 0.051051   | 0.056433   |   1.4 | 33.24
Output  | 0.00016822 | 0.00017339 | 0.0001967  |   0.0 |  0.11
Modify  | 0.013767   | 0.01397    | 0.014273   |   0.1 |  9.10
Other   |            | 0.001772   |            |       |  1.15

Nlocal:        72.0000 ave          79 max          65 min
Histogram: 1 1 0 4 0 1 1 3 0 1
Nghost:        1466.08 ave        1476 max        1447 min
Histogram: 1 1 0 0 2 0 0 4 1 3
Neighs:        7466.67 ave        8131 max        6694 min
Histogram: 1 0 2 0 3 1 3 0 0 2

Total # of neighbors = 89600
Ave neighs/atom = 103.70370
Neighbor list builds = 67
Dangerous builds = 0


# Small amount of linear quench

fix 1 all npt temp 1.25 ${temp} 0.1 iso 5.68 5.68 0.5 mtk yes tchain 5 pchain 5
fix 1 all npt temp 1.25 0.9 0.1 iso 5.68 5.68 0.5 mtk yes tchain 5 pchain 5
run 2000
Per MPI rank memory allocation (min/avg/max) = 3.634 | 3.634 | 3.634 Mbytes
Step Temp E_pair E_mol TotEng Press Volume 
    2000    1.2225624   -5.8503078            0   -4.0185867    5.1330896    948.19804 
    2100    1.2545973   -5.8613559            0   -3.9816381    5.4182246    941.43669 
    2200    1.2293368   -5.9055054            0   -4.0636344    5.8233375    929.21772 
    2300    1.1869197    -5.913394            0    -4.135075    6.2957918    920.04922 
    2400     1.190109   -5.9614217            0   -4.1783244      5.93967     921.8574 
    2500    1.1424863   -5.9591446            0   -4.2473987    5.6910491    924.32312 
    2600    1.1188488   -6.0050895            0   -4.3287587    5.6255756    921.25738 
    2700    1.1034074   -5.9894617            0   -4.3362662    5.6873783    921.42783 
    2800    1.0784452   -6.0743975            0    -4.458602    5.7003758    914.30038 
    2900    1.1119285   -6.1021401            0   -4.4361778    5.7993372    910.39023 
    3000    1.0879617   -6.1764112            0   -4.5463575    5.9220733    902.01172 
    3100    1.0994495   -6.1856859            0   -4.5384204    5.7600396     904.6444 
    3200    1.0312766   -6.2234927            0   -4.6783681    5.4958894    904.59199 
    3300     1.037449   -6.2339488            0   -4.6795765    5.6191132    901.34841 
    3400    1.0375246   -6.2927947            0   -4.7383091    5.6022835    896.92564 
    3500   0.98754648   -6.2550879            0   -4.7754826    5.4343364    900.91058 
    3600    0.9294993   -6.2276138            0   -4.8349786    5.4805527     902.7584 
    3700   0.95030678   -6.3060796            0   -4.8822693    5.5695103     895.2224 
    3800   0.96650768   -6.3118907            0   -4.8638071    6.1080908    886.74687 
    3900   0.93969704   -6.3567635            0   -4.9488494    6.0414385    883.93816 
    4000   0.88058234   -6.3954653            0   -5.0761206    5.8324914    882.65451 
Loop time of 0.320569 on 12 procs for 2000 steps with 864 atoms

Performance: 1078082.375 tau/day, 6238.903 timesteps/s
99.8% CPU use with 12 MPI tasks x no OpenMP threads

MPI task timing breakdown:
Section |  min time  |  avg time  |  max time  |%varavg| %total
---------------------------------------------------------------
Pair    | 0.15455    | 0.16435    | 0.1775     |   1.5 | 51.27
Neigh   | 0.017595   | 0.018314   | 0.02005    |   0.5 |  5.71
Comm    | 0.090374   | 0.10516    | 0.11581    |   2.0 | 32.80
Output  | 0.00034366 | 0.00035326 | 0.00040415 |   0.0 |  0.11
Modify  | 0.027802   | 0.028245   | 0.028894   |   0.2 |  8.81
Other   |            | 0.004155   |            |       |  1.30

Nlocal:        72.0000 ave          77 max          68 min
Histogram: 1 0 3 2 1 1 3 0 0 1
Nghost:        1558.75 ave        1578 max        1541 min
Histogram: 3 0 0 1 3 1 1 1 0 2
Neighs:        8066.50 ave        9226 max        7277 min
Histogram: 2 2 1 2 0 2 1 1 0 1

Total # of neighbors = 96798
Ave neighs/atom = 112.03472
Neighbor list builds = 114
Dangerous builds = 0

#############################
# F R E E Z E  S Y S T E M  #
#############################

# Define solid atoms. This closely follows ten Wolde  Ruiz-Montero and Frenkel  Faraday Discuss  1996  104  93-110
# Compute components of the per-atom q6 vector
compute q6 all orientorder/atom degrees 1 6 components 6 nnn NULL cutoff 1.3 # compute the Q6 parameter.
                                                                             # Use all neighbours within 1.3 unit cell.

# get number of connections
compute coord_number all coord/atom orientorder q6 0.5

# An atom is solid if it has 8 or more connections (of a possible 14)
variable is_solid atom c_coord_number>=8
group solid dynamic all var is_solid    # Must be dynamic to update
dynamic group solid defined

# do clustering
compute cluster solid cluster/atom 1.3 # Create a cluster where all atoms within are solid and max 1.3 units from another member

# define chunks one chunk per cluster
compute clus_chunks solid chunk/atom c_cluster nchunk every compress yes  # Says which atoms are in which chunk

# count the size of each chunk
compute size_chunks solid property/chunk clus_chunks count


# Find the maximum entry in the vector of chunk sizes
variable max_n equal max(c_size_chunks)


# Thermo style which includes this variable
# thermo_style custom step temp pe vol v_max_n

thermo ${N}  # Print the thermo information every 100 steps
thermo 100  

# Reset the npt fix at a lower temperature (below freezing)

compute myRDF all rdf 100
fix 2 all ave/time 1 50 100 c_myRDF[*] file pcf.rdf mode vector


compute msd all msd com yes
variable twopoint equal c_msd[4]/6/(step*dt+1.0e-6)
fix 9 all vector 10 c_msd[4]
variable fit equal slope(f_9)/6/(10*dt)
thermo_style custom step temp pe c_msd[4] v_twopoint v_fit v_max_n


fix 1  all npt temp  ${temp} ${temp}  0.1  iso  5.68  5.68  0.5  mtk yes tchain  5  pchain  5
fix 1  all npt temp  0.9 ${temp}  0.1  iso  5.68  5.68  0.5  mtk yes tchain  5  pchain  5
fix 1  all npt temp  0.9 0.9  0.1  iso  5.68  5.68  0.5  mtk yes tchain  5  pchain  5

dump dmp2 all dcd ${N} traj.dcd
dump dmp2 all dcd 100 traj.dcd
dump dmp3 all dcd ${N} traj_unwrap.dcd
dump dmp3 all dcd 100 traj_unwrap.dcd
dump_modify dmp3 unwrap yes


# fix rnuntil all halt ${N} v_max_n >= 3980 error soft message no   # Stop when solidified

run 100000 # 5000000  # Run for this many steps
Neighbor list info ...
  update every 1 steps, delay 10 steps, check yes
  max neighbors/atom: 2000, page size: 100000
  master list distance cutoff = 3.8
  ghost atom cutoff = 3.8
  binsize = 1.9, bins = 6 6 6
  5 neighbor lists, perpetual/occasional/extra = 1 4 0
  (1) pair lj/cut, perpetual
      attributes: half, newton on
      pair build: half/bin/atomonly/newton
      stencil: half/bin/3d
      bin: standard
  (2) compute orientorder/atom, occasional
      attributes: full, newton on
      pair build: full/bin/atomonly
      stencil: full/bin/3d
      bin: standard
  (3) compute coord/atom, occasional
      attributes: full, newton on
      pair build: full/bin/atomonly
      stencil: full/bin/3d
      bin: standard
  (4) compute cluster/atom, occasional
      attributes: full, newton on
      pair build: full/bin/atomonly
      stencil: full/bin/3d
      bin: standard
  (5) compute rdf, occasional, copy from (1)
      attributes: half, newton on
      pair build: copy
      stencil: none
      bin: none
Per MPI rank memory allocation (min/avg/max) = 9.698 | 9.703 | 9.706 Mbytes
Step Temp PotEng c_msd[4] v_twopoint v_fit v_max_n 
    4000   0.88058234   -6.3954653            0            0 8.3333333e+20            5 
    4100   0.94128367     -6.38314  0.041985286 0.00085335936  0.037498819           17 
    4200   0.87652064   -6.4037582  0.079081693  0.001569081  0.035238447            8 
    4300   0.87306728   -6.4802404   0.10411887 0.0020178073   0.03033996            5 
    4400   0.92117643   -6.5132169   0.12425988 0.0023534065  0.026023845           16 
    4500   0.83512003   -6.4576731   0.15190824 0.0028131152  0.024167845           15 
    4600   0.90017714   -6.4819398   0.17011399 0.0030817749  0.022870461            6 
    4700    0.8622554    -6.439046   0.19040704 0.0033760111  0.021685684           13 
    4800   0.87259413   -6.4185452   0.21494613 0.0037317033  0.020949089            3 
    4900   0.91868434   -6.4207797   0.23210867  0.003947426  0.020352367            1 
    5000   0.88821829   -6.4031224   0.25107141 0.0041845231   0.01974747            1 
    5100   0.85104212   -6.4546739   0.26941498 0.0044022051  0.019208083            3 
    5200   0.89362138   -6.4221769     0.287827 0.0046126117  0.018798009            5 
    5300   0.92476907   -6.4506295   0.29133942  0.004580808  0.018219109            4 
    5400   0.88814606   -6.4853641   0.31022905 0.0047874849  0.017575283            3 
    5500   0.93580368   -6.4735009   0.31934571  0.004838571   0.01703909            1 
    5600   0.86258562    -6.437878   0.34491725 0.0051326967   0.01661731            3 
    5700   0.84483892    -6.474877   0.37320318 0.0054561864  0.016436224            3 
    5800   0.90025806   -6.4920907   0.40243729 0.0057821444  0.016424627            5 
    5900   0.92403759   -6.4444131   0.43167509 0.0060971053  0.016581557            7 
    6000   0.86702163   -6.4584619    0.4443033 0.0061708786  0.016677447            2 
    6100   0.86214811   -6.4520973   0.45130855 0.0061654168  0.016630194           21 
    6200   0.92039461   -6.4389786   0.44766208  0.006016963  0.016411755            9 
    6300   0.90534643   -6.4859395   0.45814784 0.0060601561   0.01609295            9 
    6400    0.9075139   -6.4629773   0.46912294 0.0061083711  0.015819971            4 
    6500   0.88355656   -6.4547636   0.47680778 0.0061129198  0.015511957            9 
    6600   0.87422393    -6.526328   0.49059804 0.0061944193  0.015212915            8 
    6700   0.86355177   -6.4698804   0.51013476 0.0063449592  0.014961338            4 
    6800   0.91172635   -6.4978151   0.52467965 0.0064298972  0.014772111            9 
    6900    0.8970563   -6.4489877   0.52546668 0.0063462155  0.014548533            2 
    7000   0.91604336   -6.4644166   0.54278066 0.0064616741  0.014308842            6 
    7100   0.86303598   -6.4852315   0.55753975 0.0065438933  0.014123062           13 
    7200    0.9051012   -6.5002622   0.56997901 0.0065969788  0.013938628           11 
    7300   0.84931895   -6.4155998   0.59179027 0.0067555963  0.013796296            3 
    7400   0.88820131   -6.3943807   0.60988158 0.0068680354  0.013685401            2 
    7500   0.86275089   -6.4543027   0.63417857 0.0070464281  0.013612692            3 
    7600   0.86869244   -6.4599922   0.65380877 0.0071689554  0.013569388            4 
    7700   0.90065958   -6.3874837   0.67225418 0.0072754776  0.013541998            5 
    7800    0.8935137   -6.4199772   0.67439528 0.0072050773  0.013502554            8 
    7900   0.88995272   -6.5094316   0.67943805 0.0071670676  0.013438533            6 
    8000   0.87876496   -6.4521177   0.68527423 0.0071382728  0.013350654            6 
    8100   0.90081982   -6.4801223   0.70889489 0.0072931568  0.013265648            2 
    8200   0.89726179   -6.4920502   0.73327088 0.0074519394  0.013223338            3 
    8300    0.8829867   -6.5353202   0.73175377 0.0073469249  0.013155621            7 
    8400   0.86580831   -6.4661224   0.76791133 0.0076181675  0.013105629            3 
    8500   0.92869825   -6.4666794   0.79863772 0.0078297811   0.01312678            7 
    8600   0.89455995   -6.4834785   0.81467289 0.0078941167  0.013152099            3 
    8700   0.93573701   -6.4529749   0.81998546 0.0078542664  0.013160101           15 
    8800   0.89075101   -6.4479567    0.8454389 0.0080060497  0.013177246            5 
    8900   0.88768296   -6.5448806   0.84653845 0.0079263895  0.013172843           16 
    9000   0.87151209   -6.4522714   0.85590428 0.0079250392   0.01315179            7 
    9100   0.88451561     -6.47961   0.86988407 0.0079659709  0.013126583           10 
    9200   0.88795145   -6.4601574   0.87487069 0.0079245529  0.013085289            6 
    9300   0.84459227   -6.4406633   0.88504287 0.0079304912  0.013039024           10 
    9400   0.95513364   -6.4993424   0.90593197 0.0080313114  0.012995199            5 
    9500   0.89605083   -6.4395707   0.93214097 0.0081766747  0.012976629           14 
    9600   0.92146488   -6.3769338   0.96342026 0.0083630227  0.012985848           16 
    9700   0.92400693   -6.4571853   0.98375119 0.0084514702  0.013007381            8 
    9800    0.9261916   -6.4713375    1.0012953 0.0085144154  0.013029215            8 
    9900   0.91191561    -6.511877     1.023446 0.0086148649  0.013057729           23 
   10000   0.94031701   -6.4951526       1.0383 0.0086524992  0.013086768           11 
   10100   0.85827554   -6.5006179    1.0386149 0.0085694292   0.01310254            4 
   10200   0.92318951   -6.5446063    1.0576769 0.0086411508  0.013103079            8 
   10300    0.8855672   -6.4582626    1.0783155 0.0087242348  0.013110011           15 
   10400   0.91100292   -6.4938975    1.1017321  0.008827981  0.013117896           11 
   10500     0.907508   -6.5125648    1.1323085 0.0089865748   0.01314088            7 
   10600   0.90260235   -6.4911306    1.1594232 0.0091149616  0.013180593            6 
   10700   0.88243245   -6.3975974    1.1548057 0.0089938136  0.013208412           10 
   10800    0.8868156   -6.4586423    1.1550944 0.0089127649  0.013215983            6 
   10900   0.89813932    -6.527666    1.1496612 0.0087894587  0.013195725           11 
   11000   0.84826259   -6.4205202    1.1699788 0.0088634752  0.013173574            7 
   11100   0.92441765   -6.4640903     1.197884 0.0089931225  0.013164965            7 
   11200   0.87842984    -6.452424    1.2024742 0.0089469803  0.013155411            5 
   11300   0.90300374   -6.4705063    1.2269504 0.0090483063  0.013149267            8 
   11400   0.92753377   -6.4532495    1.2495321 0.0091340063  0.013154016            4 
   11500     0.918646   -6.4602013    1.2599862 0.0091303341  0.013157745           10 
   11600   0.88482289   -6.4577493    1.2615368 0.0090627637  0.013148009            7 
   11700   0.87283326   -6.4928548    1.3012347 0.0092680532  0.013142126            9 
   11800   0.90238996   -6.4329378    1.3226845 0.0093409918  0.013151483            8 
   11900   0.87361694   -6.3830034    1.3486408 0.0094442629  0.013165566            4 
   12000   0.85688564   -6.3765211    1.3826481 0.0096017225  0.013186146            6 
   12100   0.90337077   -6.4468761    1.3961524 0.0096153741  0.013212252           13 
   12200   0.87410691   -6.4346543     1.406505  0.009607274   0.01323154            6 
   12300   0.91908501   -6.4548465    1.4264183 0.0096640801  0.013255156            6 
   12400   0.90237702   -6.5178486    1.4357113 0.0096485969  0.013272494            6 
   12500   0.89110807   -6.5152862    1.4726481 0.0098176535  0.013293215            7 
   12600   0.88175597   -6.4319367    1.4790314 0.0097819534  0.013315212            6 
   12700   0.87497166   -6.4484506     1.519337 0.0099694028  0.013345366           11 
   12800   0.85689845   -6.4742543    1.5243034 0.0099238497  0.013381033            6 
   12900   0.91815104   -6.5052506    1.5484035  0.010002606  0.013409037            5 
   13000   0.89626091   -6.5132062    1.5807133  0.010132777  0.013445169            7 
   13100   0.90344437    -6.437727     1.596696  0.010157099  0.013479708            4 
   13200   0.87600474   -6.4993378    1.6543017  0.010443824  0.013524416            3 
   13300   0.88524242   -6.4728999    1.6817967  0.010537573    0.0135803            5 
   13400   0.91381606   -6.4281764     1.731137  0.010765777  0.013644487            3 
   13500     0.905961   -6.4924171    1.7283571  0.010668871  0.013710239            4 
   13600   0.86825261   -6.4521784    1.7208836  0.010544629  0.013757813            7 
   13700   0.90784751    -6.467591     1.724075  0.010487074  0.013796365            5 
   13800   0.90602147   -6.4238308    1.7223916  0.010400915  0.013823656            4 
   13900   0.88040828   -6.4340894    1.7447589  0.010460185  0.013844725            5 
   14000    0.9172105   -6.4992803    1.7737157  0.010557831  0.013868649            7 
   14100   0.86899061   -6.4901338    1.7707484  0.010465416  0.013887776           11 
   14200   0.89305874    -6.415991    1.7799037  0.010445444  0.013901999            5 
   14300   0.94213143   -6.4943894    1.7862668   0.01040948  0.013912219            5 
   14400   0.85665779   -6.4655819    1.7737392  0.010264694  0.013907328           10 
   14500   0.91269185   -6.4523376    1.7829772  0.010246995  0.013898663           13 
   14600   0.86508999   -6.4371919    1.8129885  0.010348107  0.013891279           20 
   14700   0.89282368   -6.4066812    1.8342924  0.010398482   0.01388936            8 
   14800    0.9356266   -6.3979446    1.8666147  0.010510218  0.013894672            8 
   14900   0.89073804     -6.40091      1.88655  0.010551174  0.013900385           17 
   15000   0.89536494    -6.420746    1.9090055  0.010605586  0.013906857            9 
   15100   0.90277032   -6.4995808    1.9127794  0.010556178  0.013910362            8 
   15200   0.91994987    -6.465878    1.9224209  0.010539588   0.01391037           15 
   15300   0.93220579   -6.3828052    1.9208722  0.010462267  0.013904978            5 
   15400   0.90553078   -6.4320269     1.915027    0.0103627  0.013893349            2 
   15500   0.89683421   -6.4477209    1.9276231  0.010363564   0.01387818            4 
   15600   0.95079681   -6.4399977    1.9710539  0.010529134  0.013867966            5 
   15700   0.89444657    -6.468144     1.978177  0.010499878  0.013862686            7 
   15800   0.94481018   -6.4869344    1.9915241  0.010503819  0.013854873            6 
   15900   0.90249005   -6.5247951    2.0103254  0.010536296  0.013849158            7 
   16000   0.93972281   -6.5274785    2.0118043  0.010478147  0.013839126            8 
   16100   0.89291705   -6.5070871    2.0231208  0.010471639   0.01382869            6 
   16200   0.93568324   -6.4689752    2.0410558  0.010499258  0.013815285            5 
   16300   0.90096974   -6.4581362    2.0432909  0.010446272  0.013801836            8 
   16400   0.90864004   -6.4859076    2.0321787  0.010326111  0.013781125           10 
   16500   0.91242373   -6.4659065    2.0279549  0.010242196  0.013754926           11 
   16600   0.91726087   -6.4932178    2.0343006  0.010212352  0.013726981           11 
   16700   0.95048395   -6.4301995    2.0505181  0.010232126  0.013696612            9 
   16800   0.89805741   -6.4644958    2.0821562  0.010328156  0.013672773            5 
   16900   0.91730281    -6.483997    2.0809769  0.010261227   0.01364747           10 
   17000   0.88118586   -6.4822279    2.0991402  0.010289903  0.013620889           22 
   17100   0.92223618   -6.4690562    2.0959009  0.010213942  0.013593704           11 
   17200   0.90640571   -6.4672962     2.110922  0.010227335  0.013561982           11 
   17300   0.87401464   -6.5222859    2.1276685  0.010248885  0.013532645            4 
   17400    0.8740421   -6.4608033    2.1417622  0.010257481  0.013503747            3 
   17500   0.89715441   -6.4681816    2.1779871  0.010371367  0.013478585            7 
   17600   0.92160007   -6.5097606    2.1922417  0.010379932  0.013457491            4 
   17700   0.87444939   -6.4692772    2.2170883  0.010438269  0.013438039           14 
   17800   0.91522429   -6.4380584    2.2402177   0.01048791   0.01342104            5 
   17900   0.89028567   -6.5133384    2.2853129  0.010639259    0.0134107           13 
   18000    0.9265063    -6.491031    2.2847056   0.01057734  0.013399891            7 
   18100   0.88224953    -6.522218    2.2870576  0.010529731  0.013385464            4 
   18200   0.85580294   -6.5329086    2.2972464  0.010518527  0.013368073            2 
   18300   0.89777807   -6.4631329    2.3257398    0.0105908   0.01335527           11 
   18400   0.93728128   -6.4604868    2.3473082  0.010630924  0.013346518            5 
   18500   0.90680978   -6.5037619    2.3577656  0.010620565  0.013338855            4 
   18600   0.90206377   -6.4902379    2.3681223  0.010609867  0.013328927            5 
   18700   0.87616679   -6.4325738    2.3666503   0.01054657  0.013316242            4 
   18800   0.91152202   -6.4753594    2.4061953  0.010665759  0.013303361            7 
   18900   0.88350113   -6.4821571    2.4458746  0.010784279  0.013296488            2 
   19000   0.92500374   -6.4780033    2.4939239  0.010938262  0.013295722            2 
   19100   0.90914581   -6.4257049    2.5252033  0.011017466  0.013300259            3 
   19200   0.86919284   -6.4470565    2.5105452  0.010896463  0.013301731            3 
   19300   0.89469323    -6.487275    2.5053244  0.010817462  0.013299372            3 
   19400   0.91242355   -6.5370847    2.5188322  0.010819726  0.013294789            5 
   19500   0.90684281   -6.4840273    2.5290162  0.010807761   0.01328992            5 
   19600   0.91358735   -6.4611599    2.5818121  0.010977092  0.013291501            4 
   19700   0.92452882   -6.4416652    2.5976531   0.01098838  0.013294203            7 
   19800   0.89569688   -6.4961351    2.5994936  0.010940629  0.013295881            4 
   19900   0.93094184   -6.4229384    2.5945746  0.010865053  0.013292904            4 
   20000   0.92026635   -6.4377471    2.6117382  0.010882242  0.013288364            6 
   20100   0.88780568   -6.4440696    2.5954638  0.010760629  0.013281684            9 
   20200   0.90848554   -6.4763571    2.5684342   0.01059585  0.013267225            4 
   20300   0.87929474   -6.4817712    2.5782569  0.010583977   0.01324868            2 
   20400   0.92794168   -6.5013954     2.630564  0.010745768  0.013232404            5 
   20500   0.88918688   -6.5290554    2.6563643  0.010798229  0.013221438            3 
   20600   0.90165516   -6.5615297    2.6552913  0.010741469   0.01321121            4 
   20700   0.90643419    -6.578503    2.6440396  0.010644282  0.013195127            4 
   20800   0.88968508   -6.4526187    2.6549829   0.01063695  0.013179677            4 
   20900   0.90152699   -6.4437974    2.6568799   0.01059362  0.013163454            3 
   21000    0.9224417    -6.472698    2.6673844  0.010584859  0.013145148            7 
   21100    0.9033251   -6.5116469    2.6979449   0.01065539  0.013131031            6 
   21200   0.93443917   -6.5007233    2.7288221  0.010726502  0.013118961            4 
   21300   0.88605159   -6.4307191    2.7733124  0.010850205  0.013110003            3 
   21400   0.86246239   -6.4116106    2.7836346  0.010839698  0.013104523            9 
   21500   0.91048665   -6.4267573    2.8074167   0.01088146  0.013097707            4 
   21600   0.90869976   -6.4014517    2.8432277  0.010969242  0.013093938           10 
   21700   0.89418754   -6.3805655    2.8653926  0.011003812  0.013091868           11 
   21800   0.91065613   -6.4752584    2.8728154   0.01098171  0.013089448            7 
   21900   0.88411851   -6.4399644    2.8850593  0.010978155  0.013085898            4 
   22000    0.8794686   -6.3916282    2.9028036  0.010995468  0.013082709           11 
   22100   0.92841316   -6.4283864    2.9619895  0.011168889  0.013082893            4 
   22200   0.88264601   -6.4371246    3.0063469  0.011285086  0.013089369            4 
   22300   0.88650098   -6.4533222    3.0476601  0.011388864  0.013097789            5 
   22400   0.91470572   -6.4004856     3.081875  0.011465308  0.013109533            7 
   22500   0.86729669   -6.3516823    3.1041072  0.011496693  0.013123167            7 
   22600   0.90075164   -6.4968817    3.1069095  0.011456156  0.013136065            7 
   22700    0.8512452   -6.4630762    3.1058821  0.011401916  0.013143939            3 
   22800   0.87307859   -6.4141433    3.1133592  0.011379236  0.013151262            6 
   22900   0.88219788   -6.4874477    3.1336106  0.011403241  0.013157403            3 
   23000   0.86808876   -6.5498564    3.1088408  0.011263916  0.013160142            2 
   23100   0.85012127   -6.4901859    3.1101503  0.011219878  0.013159842            3 
   23200   0.86810072   -6.4272115    3.1302213  0.011243611  0.013158865            5 
   23300   0.87867819    -6.361561     3.112971  0.011133658  0.013157728            5 
   23400   0.91788405   -6.4096115    3.1511142  0.011221917  0.013155507            5 
   23500   0.92014808     -6.51835     3.164432   0.01122139  0.013154122           12 
   23600   0.90135344    -6.540016    3.1698402  0.011192938  0.013152566            9 
   23700   0.91712536   -6.4927685    3.1878796   0.01120914  0.013149675            3 
   23800    0.8960368   -6.4709575    3.2134441  0.011251555  0.013147961            3 
   23900   0.89498563   -6.5047866    3.2236044  0.011239904  0.013145781            2 
   24000   0.85268856   -6.4692837    3.2142517  0.011160596  0.013141975            3 
   24100   0.91969092    -6.508704    3.2323929  0.011177015  0.013137559            8 
   24200    0.8775896   -6.4203216     3.252884  0.011201391  0.013133328            4 
   24300   0.88410811   -6.5074213    3.2550035  0.011162563  0.013129359            2 
   24400   0.91721191   -6.5208971    3.2744062  0.011183081  0.013125298            2 
   24500   0.93484018    -6.488742    3.2909618  0.011193747  0.013121053            4 
   24600   0.85050706   -6.4653068    3.3085459  0.011207811  0.013116454            5 
   24700   0.89690811   -6.4711131    3.3509348  0.011305448  0.013114058            5 
   24800   0.91000965    -6.455938    3.3727361  0.011333118  0.013113728            4 
   24900   0.89380382   -6.4998346    3.3991882  0.011376132  0.013113955            5 
   25000   0.89997051   -6.5032251    3.4008608  0.011336203  0.013115306            2 
   25100   0.92171609   -6.4737062    3.4368128  0.011410401  0.013116838            2 
   25200   0.84571236   -6.4387349    3.4839936  0.011521143  0.013120259            3 
   25300   0.92477159   -6.4557074    3.5228088  0.011603454  0.013127045            4 
   25400   0.88955629    -6.429875    3.4964987  0.011471452  0.013133738            2 
   25500   0.92402615   -6.5002998    3.4899246  0.011404982  0.013136961            7 
   25600   0.95281212   -6.4653303    3.5291542  0.011488132  0.013140729            3 
   25700   0.91787908   -6.4409083    3.5518436  0.011517002  0.013145375            1 
   25800   0.89483584   -6.5016144    3.5571741   0.01148958   0.01314927            4 
   25900    0.8915138   -6.4798694    3.5973264  0.011574409  0.013153252            6 
   26000   0.93349097   -6.4511162    3.6105436  0.011572255   0.01315967            4 
   26100      0.91689   -6.4774526    3.6128023  0.011535128  0.013164961            9 
   26200   0.85609095    -6.490518     3.590412  0.011419885   0.01316634           16 
   26300   0.88274861   -6.4797933    3.6152527  0.011455173  0.013166015            8 
   26400   0.86897089   -6.4495642    3.6310958  0.011461792  0.013164583            9 
   26500   0.87373549   -6.3969457    3.6937016  0.011615414  0.013166598           11 
   26600   0.93370543   -6.4274348    3.7119613  0.011628951  0.013170788            1 
   26700   0.88589307   -6.4429692    3.7544937  0.011718145  0.013176618            2 
   26800   0.90277285    -6.469079    3.7597182  0.011690666   0.01318385           14 
   26900   0.93863395   -6.4498772    3.7984915  0.011767322   0.01319078           22 
   27000   0.86739251   -6.4169846    3.8273648  0.011812854  0.013198632           25 
   27100   0.90509444   -6.4626221    3.8571602  0.011860886   0.01320827           17 
   27200   0.90135742     -6.35993     3.860271  0.011826811  0.013217875           18 
   27300   0.90934307   -6.4447616    3.8378633  0.011715089  0.013224347           17 
   27400    0.8948798   -6.4269231    3.8589254  0.011736391  0.013230313            6 
   27500   0.89196965    -6.423403    3.8888971  0.011784536  0.013237319            7 
   27600   0.90019856   -6.4246831    3.9002474  0.011776109  0.013242802            6 
   27700   0.94157831   -6.4311935    3.9634529  0.011923745  0.013250974            6 
   27800   0.88214013    -6.424101    3.9826563  0.011938418  0.013260536            6 
   27900   0.90543937   -6.4503719    4.0207459  0.012009396  0.013271607            3 
   28000   0.92382942   -6.4267572     4.062581  0.012091015  0.013283554            5 
   28100   0.90280614   -6.4514428    4.0706015  0.012071772  0.013297374            6 
   28200   0.93041781   -6.3884206    4.0774029  0.012049063  0.013310486            2 
   28300   0.91872894   -6.4275979      4.10211   0.01207924  0.013323771            3 
   28400   0.89720615   -6.4946758    4.0909497   0.01200396  0.013334647            2 
   28500   0.88657924    -6.455796    4.1407933  0.012107583  0.013345591            4 
   28600   0.90229248   -6.4349807     4.232905  0.012333639  0.013360742            8 
   28700   0.91251348   -6.4530717    4.2611479  0.012372671  0.013379442            5 
   28800   0.94154368   -6.4501731    4.2573423  0.012318699  0.013397161            5 
   28900    0.9144613   -6.4916147    4.2707117  0.012314624  0.013413616            8 
   29000   0.93183184   -6.4475717    4.2808862  0.012301397  0.013429954            2 
   29100    0.8580143   -6.4307624    4.2822782   0.01226311  0.013443631            5 
   29200   0.95478499   -6.4971852    4.3040288  0.012283187  0.013457817            4 
   29300   0.86994903   -6.4559983    4.3176626  0.012280041  0.013470871            5 
   29400   0.85955867    -6.536336     4.337933  0.012295728  0.013483218            9 
   29500   0.86834687   -6.4420249    4.3421885  0.012266069  0.013493842            4 
   29600    0.8982177    -6.459698    4.3462572  0.012236084  0.013504584            3 
   29700   0.83939192      -6.4524    4.3469405  0.012196803  0.013513577           17 
   29800   0.90517773   -6.4963258    4.3700594  0.012220524  0.013521562            7 
   29900   0.88758796   -6.4811631    4.3909248  0.012237806  0.013529991            4 
   30000   0.93946969   -6.4679418    4.4082524  0.012245145  0.013538982           14 
   30100   0.90674605    -6.494378    4.4014768  0.012185705  0.013548717            8 
   30200   0.94616346   -6.4628036    4.3859645  0.012102551   0.01355574            5 
   30300   0.91643026   -6.4411981    4.3914925  0.012077812   0.01356095            6 
   30400    0.8846661   -6.4537238    4.4020766  0.012067096  0.013565728            8 
   30500    0.9383794   -6.5167801    4.4108293  0.012051446  0.013569305            4 
   30600   0.91689116   -6.4630286    4.4554022  0.012133448  0.013574287            1 
   30700   0.90519774   -6.5140903    4.4860331  0.012177071  0.013579933            6 
   30800   0.90061935   -6.4288023    4.5279376  0.012250913  0.013587418            4 
   30900   0.90146462   -6.4669162    4.5338239  0.012227141  0.013595293           13 
   31000   0.91237292   -6.4857433    4.5305141  0.012178801  0.013601768           17 
   31100   0.88533997   -6.5049614    4.5532562  0.012200579  0.013607034           10 
   31200   0.91531132   -6.4409834    4.5614296  0.012183305  0.013612016            6 
   31300   0.89542375   -6.5039732    4.5626754  0.012147698  0.013615901           13 
   31400   0.90986689   -6.4936446    4.5549971  0.012088633   0.01361768           10 
   31500   0.92485004   -6.4888369    4.6121151  0.012201363  0.013620565            4 
   31600   0.86671897   -6.4772971    4.6053075  0.012144798  0.013623793            4 
   31700   0.89642288   -6.4816887    4.6396541  0.012196777  0.013626807            5 
   31800   0.88477285   -6.4568828    4.6650836  0.012225062  0.013631183           11 
   31900   0.89741672   -6.4755277    4.7040483  0.012288527  0.013636515            2 
   32000   0.86433714   -6.4892799    4.7189067  0.012288819  0.013642373            2 
   32100   0.92990107   -6.4718526    4.7457878  0.012320321  0.013648152           10 
   32200   0.91317177   -6.4473158    4.7456197  0.012281624  0.013654105            7 
   32300   0.89612613   -6.4348888    4.7499378  0.012254741  0.013658928            4 
   32400   0.87451058   -6.4683287    4.7444714  0.012202858  0.013662792           10 
   32500   0.88478935    -6.467846    4.7424176  0.012160045  0.013663899            5 
   32600   0.94047304   -6.4170085    4.7380255  0.012111517  0.013665272            3 
   32700    0.8993977   -6.4040726    4.7765972  0.012172776  0.013667364            8 
   32800   0.87343254   -6.4321049    4.7974384  0.012188614   0.01366954            2 
   32900   0.94376423   -6.4998843    4.8049403  0.012170568  0.013671543            5 
   33000   0.89589683   -6.4736997    4.8223011  0.012177528  0.013672541            3 
   33100   0.93806744   -6.4412514    4.8954231  0.012324831  0.013675284            5 
   33200    0.8816974   -6.4357191    4.9039273  0.012309054  0.013679234            2 
   33300   0.86797599   -6.4754026     4.908421  0.012283336  0.013682438            2 
   33400   0.90006834   -6.4319022    4.9745076  0.012411446  0.013686243            6 
   33500   0.91647487   -6.4097334    5.0451785  0.012550195   0.01369395            7 
   33600   0.91838781   -6.4491568    5.0907299  0.012625818  0.013703526            1 
   33700    0.9192358   -6.5105495    5.1111715  0.012638901  0.013713184            1 
   33800   0.87843114    -6.442276    5.1357587  0.012662127  0.013723157            2 
   33900   0.89853171   -6.3525742    5.1599056  0.012684134   0.01373347            2 
   34000   0.92057774   -6.4010811    5.1661576  0.012662151  0.013744268            3 
   34100   0.89908294   -6.4587594    5.1558242  0.012599766  0.013752826            2 
   34200   0.86795527   -6.4431563    5.1095075  0.012450067  0.013759849            2 
   34300   0.92874132   -6.4191838    5.1828154  0.012591874  0.013766715            2 
   34400    0.8832609   -6.4062016    5.1980726   0.01259223   0.01377475            2 
   34500   0.87461172   -6.4328608    5.1753021  0.012500729  0.013781748            6 
   34600   0.90738949   -6.4430919    5.2113522  0.012551426  0.013787899            9 
   34700   0.90252149    -6.396994    5.2391462  0.012582003  0.013795323           13 
   34800   0.92067543   -6.4047433    5.2954517  0.012680679  0.013803769            3 
   34900   0.87354144   -6.3671948    5.3173097  0.012696537  0.013813325            7 
   35000   0.91342023   -6.4394695    5.2950973  0.012607374  0.013820846           10 
   35100   0.84253243   -6.4346035    5.3017626   0.01258728  0.013826955           11 
   35200   0.90175125   -6.4291197    5.3556245  0.012679035  0.013833475            3 
   35300   0.93792012   -6.4832613    5.3584804  0.012649859  0.013840866            4 
   35400   0.89995132   -6.4810245    5.3746938  0.012652292  0.013847207           11 
   35500   0.92262468   -6.5258637    5.3820591  0.012633941  0.013854545            2 
   35600    0.8621902   -6.4739317    5.3795563  0.012592594  0.013860544            2 
   35700   0.91784978   -6.4505688    5.4302451  0.012675642   0.01386726            7 
   35800   0.91569118   -6.4408948    5.4629293  0.012716316  0.013876058            2 
   35900   0.92214363   -6.4921842    5.4351879  0.012616499  0.013883413            6 
   36000   0.86211561   -6.4730226    5.4605493   0.01264016  0.013889462            4 
   36100   0.92086353   -6.4857487    5.5172465  0.012736026  0.013896706            2 
   36200   0.92076692   -6.4890564    5.5353798  0.012742587  0.013904291            2 
   36300   0.89756873   -6.5071552    5.5671544  0.012780428  0.013912245            4 
   36400   0.90258191   -6.5051118    5.5660549  0.012742799  0.013919226            3 
   36500    0.9424135   -6.4683024    5.5674809  0.012711143  0.013926519            2 
   36600   0.91236877   -6.4368132     5.575822  0.012695405  0.013933671            2 
   36700   0.91354967   -6.4382388    5.6185391  0.012757809  0.013940435            2 
   36800   0.89926763   -6.4228336    5.6655403  0.012829575  0.013947486            3 
   36900   0.91237599   -6.3478516    5.6853317  0.012839502  0.013956208           17 
   37000   0.89474148   -6.4017318    5.7347038  0.012915999  0.013965059            6 
   37100   0.89557218   -6.4432427    5.7754716  0.012972757  0.013974506            9 
   37200   0.91671748   -6.4095675    5.7899587  0.012970337  0.013984077            4 
   37300   0.93811447   -6.4187306    5.7894669  0.012934466  0.013993513            5 
   37400   0.91757378    -6.468998    5.8096531   0.01294486  0.014002636            4 
   37500   0.89226233   -6.4374012    5.8291885  0.012953752  0.014011861            3 
   37600   0.93376774   -6.4137423    5.8053843  0.012866543   0.01402024            5 
   37700   0.91107889   -6.4232248    5.8062017  0.012834221  0.014028137            3 
   37800   0.94411499   -6.4308183    5.8352887  0.012864393  0.014035146            5 
   37900   0.88897908    -6.406797     5.877681  0.012923661  0.014042289            3 
   38000   0.90886162   -6.4037107    5.9235669  0.012990278  0.014050839            4 
   38100   0.88141387   -6.4449294    5.9695022  0.013056654  0.014060012            3 
   38200   0.87071965   -6.3977501    5.9930702  0.013073888  0.014069646            5 
   38300    0.9280166    -6.435666    6.0580404  0.013181115  0.014080413            2 
   38400   0.89665207   -6.4340356    6.0526417  0.013135073  0.014091311            5 
   38500   0.90685797   -6.5476204    6.0586623  0.013113987  0.014101081            7 
   38600   0.86320257   -6.4513523    6.1128185  0.013196931  0.014111395           14 
   38700   0.90141542   -6.4519246     6.139637  0.013220579  0.014122507            4 
   38800   0.93763679   -6.4885443    6.1470393  0.013202404   0.01413361            3 
   38900   0.90008452   -6.3568002    6.1389162  0.013151063  0.014144101            4 
   39000    0.8819372   -6.4132185    6.1323213   0.01310325  0.014153202            3 
   39100   0.93510256    -6.455519    6.1253119  0.013054799  0.014161452            5 
   39200   0.90879469   -6.4827645    6.1359506  0.013044113  0.014168807            5 
   39300    0.9054389   -6.4496047    6.1384496   0.01301622  0.014175347            4 
   39400    0.8859868   -6.4000303    6.1421932  0.012991102   0.01418144            5 
   39500   0.90066121   -6.3679934    6.1512961  0.012977418  0.014187135            4 
   39600   0.91606938   -6.3943484    6.1268471  0.012893197   0.01419184            4 
   39700    0.8958537   -6.3587308    6.1531534  0.012915939  0.014196279            5 
   39800   0.92993497   -6.4113405       6.1763  0.012931951  0.014201177            3 
   39900   0.93527887   -6.4593755    6.2459664  0.013045043  0.014207326            4 
   40000   0.88095652   -6.4382585    6.2839123  0.013091484  0.014214031            9 
   40100    0.9495191   -6.5038607    6.3263665  0.013147062    0.0142215            6 
   40200   0.89364125   -6.5288169    6.3820415  0.013229771  0.014230017            3 
   40300   0.91507301   -6.5278032    6.4157478  0.013266641    0.0142391            8 
   40400   0.93327075   -6.4611957    6.4276355  0.013258324  0.014248172            5 
   40500   0.90895082   -6.4781293    6.4312496  0.013233024  0.014256161            4 
   40600   0.90069328   -6.5212592    6.4157405  0.013168597   0.01426322           15 
   40700   0.92976423   -6.4545026    6.4215223   0.01314808  0.014269939            2 
   40800   0.89546008   -6.4582234    6.4547371  0.013183695   0.01427689            4 
   40900   0.89191051   -6.4911949    6.4670985  0.013176647  0.014283765            4 
   41000   0.93012491   -6.4491472    6.5123796  0.013236544  0.014291535            5 
   41100   0.89390494   -6.4129727    6.4951939  0.013169493  0.014299122           12 
   41200   0.93522597   -6.3956843    6.5243835  0.013196568   0.01430644            6 
   41300    0.9357342   -6.4053646    6.5363665  0.013188794  0.014313762            3 
   41400   0.89520033   -6.4911601    6.5330304  0.013150222  0.014319841            2 
   41500   0.89661487   -6.4512581    6.5786614  0.013210163  0.014325889            3 
   41600   0.95953561   -6.4509608    6.6109633  0.013243115  0.014333344            3 
   41700   0.90757067   -6.4651698    6.6072179  0.013203873   0.01433995            3 
   41800   0.93152639   -6.4600497    6.6306971  0.013219093  0.014346792            2 
   41900   0.89445773   -6.4294803    6.6620231  0.013249847  0.014353082            5 
   42000   0.89855039   -6.4915579    6.6838733  0.013261653  0.014359408            5 
   42100   0.90798075   -6.4367696     6.679418  0.013221334  0.014365081            5 
   42200   0.87347924   -6.3577636    6.6939113  0.013218624  0.014370461            7 
   42300   0.86373139    -6.381207    6.7140971  0.013227142  0.014375433            2 
   42400    0.9109715   -6.5039803    6.7178785  0.013203377  0.014379728            3 
   42500   0.87521235   -6.4714189    6.6687513  0.013075983  0.014382313            3 
   42600   0.90599948   -6.4263289    6.7238759  0.013153122  0.014385192            4 
   42700     0.862079   -6.4563573    6.7431408  0.013159916  0.014388884            5 
   42800   0.90899127   -6.4387785    6.7611478  0.013164228  0.014392201            4 
   42900   0.89810202   -6.4595536    6.7524202  0.013116589  0.014395136            3 
   43000   0.86465837   -6.5197981    6.7430914  0.013068006  0.014397389            5 
   43100   0.90971935    -6.524376    6.7787745  0.013106679  0.014399073            4 
   43200   0.89209852   -6.4527105    6.8186148  0.013153192  0.014402097            2 
   43300    0.9172809   -6.4329725    6.8719212  0.013225406  0.014405308            2 
   43400   0.91594849   -6.4279628    6.8486255  0.013150203  0.014408223            6 
   43500   0.85220974   -6.4169415     6.837754  0.013099145  0.014409909            6 
   43600     0.921963   -6.4146353    6.8775755  0.013145213  0.014412347            1 
   43700   0.91016653   -6.4366205    6.9089692  0.013174998  0.014415513            3 
   43800   0.91414852   -6.4250876    6.9254842   0.01317634  0.014419116            3 
   43900   0.85118503   -6.4323961    6.9764198  0.013243014  0.014422969            1 
   44000   0.91795326   -6.4626271     6.983378  0.013226094  0.014426856            7 
   44100   0.93318262   -6.5020848    7.0463766  0.013315148   0.01443115            6 
   44200   0.90567118   -6.4760584    7.0610793  0.013312744   0.01443553           10 
   44300   0.88898781   -6.5247689    7.0756702   0.01331014  0.014440693            8 
   44400   0.88059365   -6.4977303    7.0580039  0.013247004  0.014444685           18 
   44500   0.87469053    -6.402504    7.1142593  0.013322583  0.014448861           10 
   44600   0.92772479   -6.4310789    7.1938947  0.013441507  0.014455147            7 
   44700   0.90164188    -6.503607    7.1980861  0.013419251  0.014461485            2 
   44800   0.88462185   -6.3825788    7.2716174  0.013526074  0.014467706            2 
   44900   0.89319456   -6.4206841     7.260785  0.013475844  0.014474046            2 
   45000   0.90778178   -6.4728975    7.2697555   0.01346251  0.014480142            1 
   45100   0.86314711   -6.4868518    7.2639398  0.013421914  0.014485888            2 
   45200   0.89764994    -6.452956    7.2742897  0.013411301  0.014491217            3 
   45300   0.88535473   -6.4323188    7.2884773  0.013407795  0.014495899            4 
   45400   0.90565634   -6.5260763    7.2880065  0.013377398  0.014500475            1 
   45500   0.89602183   -6.5192502    7.3005537  0.013370977  0.014504229            5 
   45600   0.89350538   -6.4641016    7.3125553  0.013363588  0.014508045            3 
   45700   0.90411231   -6.4580531     7.334539  0.013374433  0.014512126            4 
   45800   0.93893316   -6.4890781    7.3833573  0.013434056  0.014516217            4 
   45900   0.86312622   -6.4488126     7.399647  0.013434363  0.014520857            9 
   46000   0.91172108   -6.4778262    7.4106809  0.013425146  0.014525801            5 
   46100   0.87849193   -6.5116297    7.4540878   0.01347449  0.014530869            3 
   46200   0.90585965   -6.4433345    7.4651328  0.013465247  0.014536044            5 
   46300   0.90315428    -6.487478    7.5063442  0.013510339  0.014541256            9 
   46400   0.86364205   -6.5170006    7.5050752  0.013478942  0.014545748            5 
   46500   0.89104998   -6.4908598    7.5174612  0.013472153  0.014550351            7 
   46600   0.92269593   -6.5078145    7.5138384  0.013436764  0.014554581           20 
   46700   0.91703614   -6.4197397    7.5747009  0.013516597  0.014560192           13 
   46800    0.9205521   -6.4238816    7.6307047  0.013587437   0.01456715            6 
   46900     0.883162   -6.4484525    7.6351262  0.013566322  0.014573792           10 
   47000   0.86913903   -6.4562786     7.615664   0.01350295  0.014578975            3 
   47100   0.91909356    -6.430552    7.6158501  0.013474611  0.014584126           12 
   47200   0.92878015   -6.5290412    7.6220312  0.013456976  0.014588569            9 
   47300   0.89038129   -6.4863048    7.6026542  0.013394387  0.014591858           28 
   47400   0.84411077   -6.4929005    7.6426617  0.013436466  0.014594966           14 
   47500   0.91534359   -6.4791824    7.6986253   0.01350636  0.014599128            8 
   47600   0.88096723   -6.4527417    7.7380281  0.013546968  0.014603894            8 
   47700   0.92707646   -6.4584991    7.7968672  0.013621361  0.014608905            3 
   47800   0.91050587   -6.4473008    7.7743438  0.013553598  0.014614111            5 
   47900   0.91636096   -6.4128897    7.7327716  0.013452978   0.01461826           11 
   48000   0.98742483   -6.4402113    7.7499911  0.013454846   0.01462215            4 
   48100   0.87934372   -6.4120232    7.7951832  0.013505168   0.01462571            1 
   48200   0.94054184   -6.5088665    7.7863451  0.013461869  0.014629383            4 
   48300   0.87973851   -6.4787568    7.7168818  0.013314151  0.014631217            3 
   48400   0.93877061   -6.4708056    7.7356255  0.013318914  0.014632641            4 
   48500   0.92886787   -6.4843758    7.7585707  0.013330877  0.014633877            2 
   48600   0.86745807   -6.4833487    7.7923513   0.01336137   0.01463483            3 
   48700   0.92262534   -6.4687425    7.7954636   0.01333926  0.014635689            3 
   48800   0.93823145   -6.3929539    7.8213491  0.013356129  0.014636987            3 
   48900   0.92286192   -6.4291526     7.787883  0.013271784  0.014638258            4 
   49000   0.87675783   -6.3988662    7.7343903  0.013153725  0.014637831            6 
   49100   0.94088675   -6.4479506     7.757901  0.013166838  0.014636995            9 
   49200   0.90884641   -6.4228925     7.783238  0.013182991  0.014636099            8 
   49300   0.88411627   -6.4586594    7.7478646  0.013096458  0.014634715           11 
   49400   0.95495508   -6.4750321    7.7608182  0.013091798  0.014632483            7 
   49500   0.94236249    -6.466764    7.7664447  0.013074823  0.014630418            4 
   49600   0.94034078   -6.4528567    7.7787637  0.013069159  0.014627916            2 
   49700   0.93305278   -6.4280146    7.8389034  0.013143701  0.014626056            3 
   49800   0.89066524   -6.3937699    7.8285308  0.013099951  0.014624305            2 
   49900   0.89820532   -6.4123406    7.8476393   0.01310561  0.014622456            6 
   50000   0.91823108   -6.4510871     7.880307  0.013133845  0.014620176            1 
   50100    0.8832626   -6.4794538     7.894405  0.013131079  0.014617608            5 
   50200   0.88606867   -6.4075674     7.965548  0.013223021  0.014615719            6 
   50300   0.89316871   -6.4072263    7.9788509  0.013218772  0.014614521            4 
   50400   0.89413396    -6.469088    7.9796601  0.013193882  0.014613135            3 
   50500   0.88793831   -6.4698014    7.9682872  0.013148989  0.014611335            4 
   50600   0.95692052   -6.4999085     7.981934  0.013145478  0.014609065            5 
   50700   0.88088467    -6.410444    8.0201973  0.013182441  0.014606926            5 
   50800   0.87326812   -6.3711532    8.0864057  0.013265101  0.014605544            4 
   50900   0.92635644   -6.4541059     8.090294  0.013245406  0.014604702            8 
   51000   0.91215041   -6.4568113    8.1097976  0.013251303  0.014603663            5 
   51100   0.90986493   -6.4381398    8.1510324  0.013292616  0.014603187            6 
   51200   0.89108689   -6.4165648    8.1413088  0.013250828  0.014602809            9 
   51300   0.87737868   -6.3891802    8.2010046   0.01332197  0.014602165            9 
   51400   0.88464401   -6.4864139    8.1893383  0.013277137  0.014601915            7 
   51500   0.93959178   -6.4909028    8.2095667  0.013284088  0.014601595            5 
   51600   0.93454183   -6.4156002    8.2144462  0.013266224  0.014601424            2 
   51700    0.8861837   -6.4359432    8.2088599   0.01323156  0.014601074            6 
   51800   0.89899697   -6.4547436    8.2431994   0.01326126  0.014600435            6 
   51900   0.93887471   -6.4377585    8.3118738  0.013345976  0.014600426            5 
   52000   0.91222563   -6.4006748    8.3039103  0.013307548  0.014600637            2 
   52100   0.88219506    -6.459949    8.3178539  0.013304309  0.014600252            4 
   52200   0.89453889   -6.4454569    8.3377779  0.013310629  0.014599677            5 
   52300   0.92464794   -6.4957918    8.3720892  0.013339849   0.01459931            2 
   52400    0.8990945    -6.509373    8.3601975  0.013295479  0.014598778            1 
   52500    0.9071071   -6.4217833    8.4178748  0.013361706  0.014598277            1 
   52600   0.88733117   -6.4118683    8.4435946  0.013377051  0.014598768            2 
   52700   0.90628417   -6.5271052    8.4284657  0.013327745  0.014598531            3 
   52800   0.85824527   -6.4977833    8.4405493  0.013321574  0.014597862            2 
   52900    0.9002253    -6.466341    8.5124846  0.013409711  0.014597598            5 
   53000   0.87703018   -6.4092613    8.5622591  0.013462671  0.014598711            4 
   53100   0.91263761   -6.3844068    8.5753713  0.013457896  0.014600367            6 
   53200   0.89319077    -6.433856    8.6034617    0.0134766  0.014601846           10 
   53300   0.89210109    -6.450471    8.5858469  0.013423776  0.014602621            2 
   53400   0.84651109   -6.4779259    8.5696395  0.013373345  0.014602487            4 
   53500   0.87321009   -6.4864755    8.5867314  0.013374971  0.014601595            2 
   53600   0.91890156   -6.4841637    8.5760403  0.013333396  0.014600616            4 
   53700   0.89121943   -6.4551671    8.5729072  0.013303704  0.014599562            2 
   53800   0.86669663   -6.4971453    8.4981383  0.013163163  0.014597601            5 
   53900   0.89202482   -6.5359024    8.5025704  0.013145594  0.014594752            4 
   54000   0.88485539   -6.4861883    8.5508796  0.013195802  0.014592238            4 
   54100   0.91089103    -6.459958    8.5987929  0.013245214  0.014590487            3 
   54200   0.87420417   -6.5021187    8.5496574   0.01314523  0.014588333           12 
   54300    0.9156109   -6.4862128    8.5569686  0.013132242  0.014585452            6 
   54400   0.87477601   -6.5078663    8.5894904   0.01315792  0.014582613            5 
   54500   0.85156042   -6.5087722    8.6191377   0.01317911  0.014579405            7 
   54600   0.92875038   -6.5356124    8.6367415   0.01318184  0.014576321            7 
   54700   0.84663669   -6.4749786    8.6095346  0.013116293  0.014572986            6 
   54800   0.91858533   -6.4637808    8.6209461  0.013109711    0.0145693            6 
   54900   0.90500262   -6.3643166    8.6479834  0.013126872  0.014566492           14 
   55000   0.90724653   -6.4269553    8.6267833  0.013070884  0.014563313            4 
   55100   0.88446526   -6.4166001    8.6709961  0.013114029  0.014560267            3 
   55200   0.91560498   -6.4435033    8.6818133  0.013106602  0.014557093            3 
   55300   0.89876019   -6.4847622    8.7136253   0.01313084   0.01455358            2 
   55400   0.91272103   -6.5358995    8.7122308   0.01310504  0.014549703            4 
   55500   0.89244247   -6.4744517     8.703906  0.013068928    0.0145456            3 
   55600   0.89086579   -6.4696249    8.6962174  0.013033899  0.014541169            5 
   55700   0.86861311   -6.4477164    8.7198508  0.013045857  0.014537004            6 
   55800   0.91462638   -6.4827081    8.6980273  0.012989885  0.014532419            3 
   55900   0.85392608   -6.4744287    8.7207283  0.013000489  0.014527395            2 
   56000   0.90773737   -6.4621006    8.7380857  0.013003104  0.014522271            8 
   56100   0.94578874   -6.4595281    8.8044661  0.013078529  0.014518501            1 
   56200    0.8878489     -6.44574    8.7704711   0.01300485  0.014514701            3 
   56300   0.88767963   -6.4532969    8.8065394  0.013035138  0.014510562            4 
   56400   0.93817565   -6.4651431    8.8038051  0.013007986  0.014506337            4 
   56500   0.86139775   -6.4768713    8.7868332  0.012959931  0.014501715            3 
   56600   0.90400956   -6.5191048    8.7726824  0.012916199  0.014496107            3 
   56700   0.91493179   -6.4639495     8.793092  0.012923416  0.014490372            2 
   56800   0.89601099   -6.4260067    8.8391766  0.012968275  0.014485009            4 
   56900   0.86592658   -6.4331399    8.8346505  0.012938855  0.014479803            3 
   57000   0.90942981   -6.4088535    8.8870105  0.012992705   0.01447473            4 
   57100   0.92269694   -6.4033381    8.8610535  0.012932069  0.014469869            4 
   57200   0.86932815    -6.430638    8.8963909  0.012960942  0.014464698            2 
   57300   0.90878555   -6.4270294     8.898643  0.012941598   0.01445971            3 
   57400   0.90203852   -6.5088554    8.8753125  0.012885181  0.014453936            6 
   57500   0.92611747   -6.5404243     8.895686  0.012892298  0.014447844            5 
   57600   0.85441939   -6.4822919    8.9163316  0.012899785  0.014441962            5 
   57700   0.88083004   -6.4548156    8.9116618  0.012870684  0.014435729            7 
   57800   0.91145151   -6.4467652      8.92196  0.012863264  0.014429862           11 
   57900   0.91273449   -6.4968028    8.8619972  0.012754745  0.014423351            9 
   58000    0.9312142   -6.4953257    8.8519763  0.012718357   0.01441636           13 
   58100   0.90142752   -6.4554178    8.8498459   0.01269341  0.014409164            9 
   58200   0.93325066   -6.4898935    8.9411123   0.01280228  0.014402384            4 
   58300   0.88818777   -6.4813226     8.991945   0.01285298  0.014396678            4 
   58400   0.88020988   -6.4429114    9.0311314  0.012886888  0.014391104            4 
   58500   0.87209905   -6.4582981    9.1293765   0.01300481  0.014386174            5 
   58600   0.89947992   -6.4251983    9.1363017  0.012992465  0.014381631            2 
   58700   0.86464805   -6.4783932     9.090971  0.012905978  0.014376469            3 
   58800   0.85316908   -6.4815514    9.0508789  0.012827209  0.014369871            3 
   58900   0.90549097   -6.4675016    9.0609199  0.012819638  0.014363024            2 
   59000   0.89878995   -6.4208775    9.0424559   0.01277183  0.014356129            5 
   59100   0.89754603   -6.4399985    9.0644941  0.012781294  0.014349156            4 
   59200   0.90071858   -6.4934175    8.9542507  0.012604519  0.014341635            3 
   59300   0.88692382   -6.4604148    8.9471858  0.012573336  0.014332943            4 
   59400   0.87742227   -6.4086976     8.996697  0.012621629  0.014324606            2 
   59500   0.93081657   -6.4068354    9.0135511  0.012624021  0.014316662            3 
   59600   0.91813229    -6.438993    9.0181075  0.012609211  0.014309075            2 
   59700   0.91934069   -6.4601968    9.0201595  0.012590954  0.014301042            3 
   59800     0.900868   -6.5152255    9.0500728  0.012611584   0.01429301            4 
   59900   0.94591562   -6.4937336    9.1160077  0.012682259  0.014285175            3 
   60000   0.91201878   -6.4566551    9.1455766   0.01270219  0.014278095            6 
   60100   0.85967614   -6.4337173    9.1697392  0.012714558  0.014271098            1 
   60200   0.91393124   -6.5226964     9.138635  0.012650381  0.014263936            3 
   60300   0.92805614   -6.5390924    9.1009335  0.012577299  0.014256302            3 
   60400   0.90797741   -6.4186707    9.1017803  0.012557644  0.014248668            4 
   60500   0.96147052   -6.4354065    9.1590269  0.012615739  0.014241741            2 
   60600   0.91611009    -6.413474    9.1551214  0.012589551  0.014234767            9 
   60700   0.92582891   -6.4642958    9.1562033  0.012570296  0.014227457            2 
   60800   0.88391549   -6.4760857     9.183459  0.012586978  0.014219715            1 
   60900   0.89204404   -6.4976087    9.2267801  0.012625588  0.014212293            1 
   61000    0.8390243   -6.4554507    9.2513781  0.012638495  0.014204967            3 
   61100    0.8719543   -6.3982541    9.3348144  0.012731607  0.014198352            4 
   61200   0.87438126    -6.424544    9.3680315  0.012756034  0.014192038            5 
   61300   0.86919887   -6.4953169    9.3798701  0.012751319  0.014186074           11 
   61400   0.89656545    -6.445969    9.3892713  0.012743311  0.014179839            8 
   61500    0.8956253   -6.4758418    9.3621042  0.012685778  0.014173483            4 
   61600   0.90409477   -6.4657788    9.4022488  0.012719492  0.014167181           13 
   61700   0.87692025    -6.461271    9.3832135  0.012673168  0.014160688            6 
   61800   0.92236518   -6.4565444    9.3587795  0.012619713  0.014154163           11 
   61900   0.93435401   -6.4240199    9.3810422  0.012629297  0.014147472            4 
   62000   0.86969575   -6.4274663    9.3658239  0.012588473  0.014140563            3 
   62100   0.90819794   -6.4564729    9.4138823  0.012632692  0.014133499            4 
   62200   0.92546397   -6.3945638    9.4895191  0.012713718  0.014126909           11 
   62300     0.918865   -6.4949262    9.4551815   0.01264738  0.014120504            4 
   62400   0.86775203   -6.3758373    9.4871978  0.012669869  0.014114462            2 
   62500   0.93096449   -6.4239981    9.4781227  0.012637497  0.014108264            2 
   62600   0.90620307   -6.4577461    9.5001438  0.012646624   0.01410195            3 
   62700   0.90630991   -6.4277359    9.5644555  0.012711929  0.014096343            3 
   62800   0.90730425   -6.3762763    9.5870416  0.012721658  0.014091015            3 
   62900   0.85653696   -6.4100237    9.5612806  0.012667303  0.014085706            3 
   63000   0.92997751   -6.4233618    9.6101792  0.012711877  0.014080414           10 
   63100   0.92842006   -6.4688776    9.6219921  0.012707332  0.014075417            3 
   63200   0.93372907   -6.4092207    9.6305146  0.012698463  0.014070429            4 
   63300   0.94041954   -6.4474039    9.6436696  0.012695721  0.014065703            6 
   63400   0.88905559   -6.4545519    9.6762853  0.012718566  0.014060458            5 
   63500   0.87081435   -6.4379958    9.6643662  0.012682895  0.014055156            7 
   63600   0.91767096   -6.4421277    9.6677843  0.012667432  0.014049626            5 
   63700    0.9109227   -6.4692034    9.7367796  0.012737807  0.014044601            3 
   63800   0.86912625   -6.4292004    9.7061306  0.012677809  0.014039458            5 
   63900   0.92693466   -6.4462354    9.7890626  0.012766122  0.014034623            2 
   64000   0.95133654   -6.4784133    9.8167243  0.012782193  0.014030574            2 
   64100   0.94139114   -6.4783862    9.7750949  0.012708132  0.014026323            4 
   64200   0.87865128    -6.470148    9.7464698  0.012651181  0.014021085            3 
   64300   0.90043353   -6.4563555    9.8283675  0.012737646  0.014015815            6 
   64400   0.92020425   -6.4173367    9.8735132  0.012776285  0.014011165            2 
   64500   0.89497545   -6.4432592      9.83462  0.012706227  0.014005922            6 
   64600   0.89439156   -6.4879199    9.8018617    0.0126443  0.014000401           11 
   64700   0.90947298   -6.5232775    9.8271849  0.012657374  0.013994695           10 
   64800   0.89035256   -6.4356029    9.8598008  0.012679785  0.013989223            1 
   64900   0.91162315   -6.4572206    9.9122174  0.012727552  0.013984123            6 
   65000   0.90662722   -6.4469705    9.9024765  0.012695483  0.013979197            5 
   65100    0.9021777   -6.4276527    9.9233848  0.012702745  0.013974253            6 
   65200   0.93643304   -6.4851247    9.9419601  0.012707004  0.013969553            9 
   65300   0.94745458   -6.4531203    10.014291   0.01277985  0.013965216            3 
   65400   0.89826618   -6.4266958    10.086696  0.012852569  0.013961815            5 
   65500   0.89123971    -6.504539    10.022892  0.012751771  0.013957831            4 
   65600   0.87263706   -6.4311749    10.057173  0.012775881  0.013953587            2 
   65700   0.93291341   -6.4543684     10.13273   0.01285227  0.013949856            1 
   65800   0.85028949   -6.4140311    10.096794  0.012787227  0.013946068            3 
   65900   0.90380559   -6.5012219    10.166041  0.012855388  0.013941819            9 
   66000   0.92637624   -6.4625579    10.166202  0.012836114  0.013938178            7 
   66100   0.90965463   -6.4132156    10.058874  0.012681384  0.013933826            5 
   66200   0.90153321   -6.4538239    10.050729  0.012651975  0.013928646            7 
   66300   0.93184257   -6.4303702    10.037012  0.012615651   0.01392303            6 
   66400    0.8935725   -6.4747013    10.077537  0.012647511  0.013917516            9 
   66500   0.89533946   -6.4315877     10.05947  0.012605852  0.013911889            7 
   66600   0.87353115   -6.4182754    10.085294  0.012619236  0.013906206            4 
   66700   0.84615115   -6.4224724    10.093746  0.012610877  0.013900601            7 
   66800   0.90546925    -6.460441    10.143602  0.012654194  0.013895172            2 
   66900   0.87407957    -6.412236    10.206641  0.012713803  0.013890226            3 
   67000   0.95375372     -6.39556    10.230156  0.012724075  0.013885888            3 
   67100   0.90490666   -6.3769685    10.262215  0.012744927  0.013881926            5 
   67200   0.90872424   -6.4586668    10.255866  0.012718088  0.013877707            6 
   67300    0.8966544   -6.4539639    10.276406  0.012724624  0.013873471            4 
   67400   0.89963854   -6.4581799    10.242347  0.012663634  0.013869204            9 
   67500   0.87381359   -6.4846195    10.288792  0.012702213  0.013864702            8 
   67600   0.91919957   -6.4606655     10.32702  0.012730548  0.013860599            2 
   67700   0.91859125   -6.4029869    10.348351     0.012738  0.013857006            2 
   67800   0.90940989    -6.409318    10.324111  0.012689418  0.013853401            5 
   67900   0.88822485   -6.4336022     10.34567   0.01269719  0.013849436            4 
   68000   0.93547869   -6.4229162    10.433125  0.012785692  0.013846099            7 
   68100    0.9107209    -6.442153    10.437847  0.012772696  0.013843134            7 
   68200   0.95293431   -6.5498674    10.449702  0.012768453  0.013840072            3 
   68300   0.90316477   -6.5000025    10.465302  0.012768792  0.013836777           14 
   68400   0.93577368   -6.4956541    10.517546  0.012813775  0.013833628            8 
   68500   0.92120567   -6.4775842    10.543913  0.012827145  0.013830745           11 
   68600   0.88209732    -6.504853    10.541745  0.012805812  0.013827983           12 
   68700   0.89936213   -6.5050687    10.554738  0.012802933  0.013825024            7 
   68800   0.96047626   -6.5002669    10.592141  0.012829628   0.01382246            3 
   68900   0.88580229   -6.4789184    10.613312  0.012836613  0.013819811            2 
   69000   0.93244215   -6.4954846    10.606538  0.012809829  0.013816959            7 
   69100   0.88043641   -6.4064681    10.647179  0.012840302  0.013814396            4 
   69200   0.89819263   -6.3980751    10.731321  0.012923074  0.013812223            1 
   69300   0.88251317   -6.4568785    10.716549  0.012886663  0.013810169            9 
   69400   0.92445718   -6.4628513    10.707021  0.012856653  0.013808067            3 
   69500   0.89930112   -6.4587063    10.770708  0.012914518  0.013805964            3 
   69600   0.86511491   -6.3982919    10.766088  0.012890431  0.013804074            2 
   69700   0.94868113   -6.4482482    10.877731  0.013005417  0.013802464            2 
   69800   0.92206101   -6.4637077    10.892914  0.013004912  0.013801552            3 
   69900   0.87509982   -6.4989369     10.90081  0.012995719  0.013800146            3 
   70000   0.90636944    -6.442307    10.928531  0.013010156  0.013799108            3 
   70100   0.90797063   -6.4186031    10.970494  0.013041481  0.013798455            1 
   70200   0.90992662   -6.3790721    10.933199  0.012978631  0.013797704            8 
   70300   0.87956264    -6.425665    10.934183  0.012961336  0.013796619            6 
   70400   0.90367136   -6.4424811    10.954806  0.012967337  0.013795315           11 
   70500   0.93139478   -6.4015061    10.942861  0.012934824  0.013794007            3 
   70600    0.9181092   -6.4404584    10.913031  0.012881292  0.013792423            4 
   70700   0.88643326   -6.4029186    10.921544  0.012873107  0.013790662            5 
   70800   0.91783158   -6.3712505    11.003492   0.01295138  0.013789005            7 
   70900   0.87591067   -6.3828743    10.973593   0.01289797  0.013787404            4 
   71000    0.9176686     -6.44368    11.045339  0.012964013  0.013785941            6 
   71100   0.89425437   -6.4435785    11.058359   0.01296104  0.013784775            3 
   71200    0.8781144   -6.3688817    11.037042  0.012917887  0.013782965            2 
   71300   0.93068914   -6.3735764    11.113876   0.01298957  0.013781848            4 
   71400   0.88684752   -6.3721472    11.076233  0.012927443  0.013780453            1 
   71500    0.8870526   -6.4417693    11.076596  0.012909785  0.013778565            7 
   71600   0.85839164    -6.469338    11.130825   0.01295487  0.013776688            2 
   71700   0.87508067   -6.4789882    11.132164  0.012938359  0.013774703            2 
   71800   0.89989908    -6.411977    11.192404  0.012990256   0.01377305            3 
   71900   0.89195815   -6.4734446     11.19542  0.012975684  0.013771505            8 
   72000   0.93467531   -6.4969416    11.194269  0.012956329  0.013769948            8 
   72100   0.88847622   -6.4806003    11.206256  0.012952214   0.01376859            4 
   72200   0.90825866   -6.4454718    11.203542  0.012931143  0.013767199            8 
   72300   0.92712991   -6.4350313    11.250834  0.012967766  0.013765992            9 
   72400   0.87959678   -6.4564386    11.206241  0.012898527   0.01376489           10 
   72500   0.94518089   -6.4850883    11.199569  0.012873068   0.01376338           17 
   72600   0.89134437   -6.4129457    11.265342  0.012930833  0.013761831           13 
   72700   0.91123357   -6.4776692    11.371202   0.01303439  0.013760838            6 
   72800     0.872041   -6.4547426    11.371389    0.0130167  0.013759717            7 
   72900   0.91930911   -6.4728115    11.333791  0.012955865  0.013758373            9 
   73000   0.90260083   -6.4934502    11.343243  0.012948908  0.013756784            6 
   73100   0.89180658   -6.5427034    11.385123  0.012978936  0.013755272           17 
   73200    0.8820511   -6.5568505    11.381457  0.012957032  0.013753529           16 
   73300   0.87810985   -6.4719961    11.435316  0.013000587  0.013751804           19 
   73400   0.89582166   -6.4197223    11.518738  0.013077586  0.013751058           17 
   73500   0.88399055   -6.5097188    11.596313  0.013147748  0.013750542           14 
   73600   0.88381568    -6.515494    11.650746  0.013191515  0.013750136            4 
   73700    0.9147176   -6.4499857    11.650744  0.013173614   0.01374979            8 
   73800    0.8819013   -6.4631005     11.61415  0.013114442  0.013749552           27 
   73900   0.90165607   -6.5369962    11.613369  0.013095815  0.013748986           15 
   74000   0.87493711   -6.5147699    11.594258  0.013056596  0.013748247            3 
   74100   0.91217364   -6.4806986     11.64511  0.013096165  0.013747424            9 
   74200    0.9151819   -6.4425353    11.675879  0.013113071   0.01374725            9 
   74300   0.88810732   -6.4689409    11.640364   0.01305559  0.013746857           11 
   74400   0.89909998   -6.4280387    11.659176  0.013059113  0.013746379            6 
   74500    0.9043347   -6.4277163    11.727771  0.013118312  0.013746177            2 
   74600   0.87807067   -6.4573237    11.765037  0.013142356  0.013746151            4 
   74700   0.83280001   -6.4670686     11.78424  0.013146185  0.013745793            5 
   74800   0.89225405   -6.4516352    11.771955  0.013114923  0.013745579            3 
   74900   0.91577801   -6.4299907    11.787959  0.013115219  0.013745395            2 
   75000     0.890399   -6.4075277    11.781168  0.013090187  0.013745323            4 
   75100   0.90012672   -6.4320013    11.811632   0.01310656  0.013744795            4 
   75200   0.93639161   -6.4142478    11.893935  0.013180336  0.013744857            4 
   75300   0.87420029   -6.3840123    11.901862  0.013171604  0.013744945            3 
   75400   0.92462988   -6.4551141    11.843201  0.013089302   0.01374469            2 
   75500   0.85536091   -6.4332262    11.869656  0.013101165  0.013744229            6 
   75600   0.90983439   -6.4228469    11.908728  0.013126905   0.01374384            6 
   75700   0.88546823   -6.4188697    11.914198  0.013115586  0.013743833            2 
   75800   0.92129958   -6.5004194    11.868438  0.013047975  0.013743285            7 
   75900   0.88234573   -6.4457916    11.945202  0.013115066  0.013742791           24 
   76000   0.89025514   -6.4109431    11.986015   0.01314256  0.013742588            9 
   76100   0.90910676   -6.4035425    12.062807  0.013209381  0.013742745            8 
   76200   0.86171312   -6.4181751    12.061658  0.013190789  0.013743136            4 
   76300   0.92242469   -6.4359629     12.09022  0.013204696  0.013743211           11 
   76400   0.91129288   -6.4235233    12.080054  0.013176324  0.013743432            6 
   76500   0.86279202   -6.3902441     12.05186  0.013128388  0.013743319            5 
   76600   0.90323269   -6.4226453    11.995526  0.013049963  0.013742622            3 
   76700   0.88191655   -6.4649029    11.978954  0.013014943  0.013741466            5 
   76800   0.90686161   -6.4555581    12.037336  0.013061346  0.013740601            4 
   76900   0.86029836   -6.4295396    12.042541  0.013050001  0.013739631            5 
   77000   0.86088743   -6.5429676    12.016594  0.013004972  0.013738083            3 
   77100   0.87209451   -6.5066576    12.045717  0.013019582  0.013736524            2 
   77200   0.88833585   -6.4234327    11.993986  0.012946876  0.013735039            5 
   77300   0.87568837   -6.4946719    11.983726  0.012919066  0.013733462            6 
   77400   0.90868482   -6.5156925    11.943929  0.012859527  0.013731457           10 
   77500   0.90325522   -6.4606057    11.959996  0.012860211  0.013729055            7 
   77600   0.90106736   -6.4582735    12.033126  0.012922171  0.013727043            3 
   77700   0.87319777   -6.5080736    11.998241  0.012868126  0.013724975            6 
   77800   0.89436665    -6.479345    12.075544  0.012934387  0.013723122            7 
   77900    0.9233129   -6.4625167    12.099757  0.012943685  0.013721474            7 
   78000   0.91846782   -6.3732826    12.078222  0.012904084  0.013720014            2 
[...]
   82800   0.91470201    -6.415056    13.159408  0.013244171   0.01370415           11 
   82900   0.88796118   -6.4034091    13.153312  0.013222067  0.013705235            5 
   83000   0.88969265    -6.419651    13.275983    0.0133293  0.013706392            5 
   83100   0.91403084   -6.3907627    13.331942  0.013369376  0.013708099            2 
   83200   0.86522814   -6.4220029    13.297939  0.013319249  0.013709646           14 
   83300   0.88210721   -6.4529634    13.301842  0.013307164  0.013710517            3 
   83400   0.90593448   -6.4235428    13.341926  0.013331261  0.013711628            8 
   83500   0.85365825   -6.4349121    13.382986  0.013356273  0.013712638           18 
   83600   0.87468335   -6.4405532     13.46799  0.013425029  0.013714058            8 
   83700   0.84964491   -6.4816572    13.426591  0.013367773  0.013715261           12 
   83800   0.84472797   -6.4886444    13.448299  0.013373408   0.01371622            9 
   83900   0.89878762     -6.45131    13.511765  0.013420505  0.013717624            3 
   84000   0.85609677   -6.4187646    13.557663  0.013450062  0.013719288            3 
   84100   0.91564128   -6.4521355    13.574776  0.013451026  0.013721094            7 
   84200   0.86983041   -6.4660642     13.52222  0.013383036  0.013722673            6 
   84300   0.92145488    -6.485651    13.600019  0.013444068  0.013724419            6 
   84400   0.89844727   -6.4837477    13.622554  0.013450388  0.013726126            5 
   84500    0.8831855   -6.4819065    13.601196  0.013413408  0.013727616            4 
   84600   0.93028864   -6.4534227    13.627289  0.013423256  0.013729235            4 
   84700   0.87916566   -6.4108983    13.658618  0.013438231  0.013731072            3 
   84800   0.88153059   -6.4518037    13.688363  0.013451615  0.013732997            5 
   84900   0.88521801   -6.4678758    13.698687  0.013445904  0.013735062            1 
   85000   0.91636407   -6.4418726    13.774265  0.013504181    0.0137375            4 
   85100   0.91526357   -6.4608304    13.801777  0.013515253  0.013740183            8 
   85200   0.88043525   -6.4538047    13.707716   0.01340739  0.013742285            8 
   85300   0.90968414   -6.4142708      13.8138  0.013495311  0.013744285           12 
   85400    0.8852134   -6.3827351    13.918136  0.013581319  0.013746871           10 
   85500   0.90482794   -6.4240348    13.961845  0.013608036  0.013749944            6 
   85600   0.89267071   -6.4940197    13.928391  0.013559571  0.013752743           11 
   85700   0.93621067   -6.5517007    13.857217   0.01347454  0.013754986            8 
   85800   0.85717484   -6.5102492    13.838896  0.013441041  0.013756897            7 
   85900   0.88191518   -6.4290884    13.892254  0.013477158  0.013758762           12 
   86000   0.92592827    -6.452373    13.898726  0.013467757  0.013760865            9 
   86100   0.87023751   -6.5040497    13.981316  0.013532052  0.013762771           14 
   86200    0.8955339   -6.4823881    14.052373  0.013585047  0.013765076            5 
   86300    0.9175485   -6.4521629    14.048996  0.013566045  0.013767449            3 
   86400   0.87226821   -6.4462282     14.05626   0.01355735  0.013769707            3 
   86500   0.84223195   -6.4645802    14.057155  0.013542539  0.013771655            5 
   86600   0.90514231   -6.5356735    14.114564  0.013582144  0.013773761            4 
   86700   0.91878057   -6.4465027    14.166459  0.013616358   0.01377628            2 
   86800   0.85826712   -6.4582581     14.06565  0.013503888  0.013778756            3 
   86900   0.93258931   -6.4765052    14.100332  0.013521607  0.013781065            7 
   87000   0.92363603   -6.4435575    14.132416  0.013536797  0.013783458            7 
   87100     0.941317   -6.4106476     14.16848   0.01355576  0.013786079            6 
   87200   0.86846326   -6.4534784    14.196509     0.013567  0.013788548            5 
   87300   0.90318531   -6.4396305    14.259525  0.013611612  0.013791038            8 
   87400   0.89096186   -6.4250564    14.294255  0.013629152  0.013793751            3 
   87500   0.92870505   -6.4896207      14.2733  0.013593619  0.013796723            9 
   87600    0.8919526   -6.4853193    14.219294  0.013526726  0.013799203            5 
   87700   0.90127323   -6.4690139    14.247224  0.013537841  0.013801424            6 
   87800   0.91198816   -6.5051513    14.264391  0.013538715  0.013803437            2 
   87900   0.90199755   -6.5191578    14.268429  0.013527141  0.013805325            5 
   88000   0.90931144    -6.524625    14.286209  0.013528607  0.013807132           12 
   88100     0.895624     -6.47282    14.349755  0.013573359  0.013809244            2 
   88200    0.9210503   -6.4161008    14.449627   0.01365233  0.013811873            3 
   88300   0.89979145   -6.4579356    14.429089  0.013617486  0.013814567            2 
   88400   0.87390704   -6.4554558    14.382324  0.013557998  0.013816684            3 
   88500   0.86244004   -6.5061306    14.396231  0.013555773  0.013818489            5 
   88600   0.87756833   -6.4531391    14.402593  0.013546456  0.013820149            4 
   88700   0.86681895   -6.4454455    14.446021  0.013571986  0.013821928            7 
   88800   0.90709227   -6.3996941    14.545056  0.013649639  0.013824145            2 
   88900   0.87013705   -6.4389685    14.488815  0.013581566  0.013826426            1 
   89000   0.93616721   -6.4840183    14.526021  0.013601143  0.013828457            2 
   89100   0.87586088   -6.4495658    14.556573  0.013614453  0.013830791            1 
   89200   0.86765913   -6.4252084    14.532678  0.013576867  0.013833019            4 
   89300   0.90537121   -6.4665029    14.567918  0.013594548    0.0138351            2 
   89400   0.86983966     -6.47355      14.5898  0.013599739  0.013836994            4 
   89500   0.91665029   -6.4926148    14.634293  0.013625971  0.013839102            7 
   89600   0.93078764   -6.4049651    14.751203  0.013719497  0.013841612            3 
   89700   0.87926376   -6.4176151     14.75066  0.013703697  0.013844477            4 
   89800   0.92132457   -6.4492684     14.74309  0.013681412  0.013847187            6 
   89900   0.90478431   -6.5075172    14.646836   0.01357697  0.013849529            8 
   90000   0.90982497    -6.434759    14.621775  0.013538681  0.013851563            4 
   90100   0.95193426   -6.3874967    14.704513  0.013600178  0.013854174           10 
   90200   0.94137422   -6.4614605    14.598492  0.013487151  0.013856293           11 
   90300   0.92777731   -6.4992229    14.617787  0.013490021  0.013857909            5 
   90400   0.92490146   -6.4874549    14.674777  0.013527634  0.013859838            8 
   90500   0.93656345   -6.4198845    14.854097  0.013677806  0.013862596            7 
   90600    0.9027016    -6.468666    14.877152  0.013683915  0.013865249           16 
   90700   0.90774792   -6.5201557    14.796076  0.013594337  0.013867415            4 
   90800   0.87113012   -6.5544259    14.730129  0.013518841  0.013868889            8 
   90900   0.91004149   -6.5051993    14.745087  0.013517682  0.013870433            4 
   91000   0.88656735   -6.4380401    14.725112  0.013484535  0.013872005            3 
   91100   0.97069671   -6.5061961    14.744009  0.013487019  0.013873565            5 
   91200   0.87615411   -6.4450321    14.742304  0.013470672  0.013875098            2 
   91300   0.93812718   -6.4529159    14.788287  0.013497889  0.013876338            5 
   91400   0.98223834   -6.4797109    14.768383  0.013464974  0.013877824            4 
   91500   0.84472282   -6.4113826    14.745899  0.013429781  0.013878852            5 
   91600   0.92328345   -6.4857771      14.8521  0.013511735  0.013879939            3 
   91700   0.96348692   -6.4444565    14.925575  0.013563772  0.013881317            2 
   91800   0.90915771    -6.430401    14.952587  0.013573518  0.013883026            3 
   91900   0.88777424   -6.4394282    14.982018  0.013585435  0.013884648            3 
   92000    0.9039707   -6.4168863    14.950765   0.01354236  0.013886324            4 
   92100   0.90183464   -6.4117545    14.910923  0.013491606   0.01388779            2 
   92200   0.93782323   -6.4345603     14.90382  0.013470553  0.013889275            3 
   92300   0.86746396   -6.4406066    14.870519  0.013425893  0.013890238            4 
   92400   0.90254939   -6.4859775    14.889239  0.013428246  0.013890972            3 
   92500   0.89377164   -6.4452299    14.890674  0.013415021  0.013891543            6 
   92600   0.88485597   -6.3835552     14.98169  0.013482442  0.013892327            6 
   92700   0.88440625   -6.4758268    14.997146  0.013481793  0.013893192            2 
   92800   0.88790044   -6.4656683    14.991978  0.013462624  0.013893732            2 
   92900   0.88282343   -6.4434112    15.034087  0.013485905  0.013894428            2 
   93000   0.88507772   -6.4597309      15.0303  0.013468011   0.01389533            4 
   93100   0.91863353   -6.4182615    15.119343  0.013533246  0.013896538            2 
   93200   0.89407717   -6.4162188    15.135395  0.013533079   0.01389775            4 
   93300   0.89535464   -6.5023515    15.094579  0.013482118  0.013898772            2 
   93400   0.85770529   -6.4931015    15.135927  0.013504575  0.013899516            3 
   93500   0.88484928   -6.4174747    15.197673  0.013545163  0.013900592            3 
   93600   0.91657818   -6.4667868    15.143379  0.013482353  0.013901736            5 
   93700   0.86614559   -6.4595098    15.111945  0.013440008  0.013902426            6 
   93800   0.89903443   -6.4087203    15.189422  0.013494512  0.013903412            7 
   93900   0.95130386   -6.4417968    15.191057  0.013481592  0.013904389           13 
   94000   0.89988856   -6.4541599     15.14782  0.013428918  0.013905182            6 
   94100   0.93356834   -6.4447161    15.150451  0.013416977  0.013905874            3 
   94200   0.92253247     -6.39756    15.178114  0.013427206  0.013906884            8 
   94300   0.90632525   -6.4147373    15.311185  0.013530563  0.013908195           13 
   94400   0.87867684   -6.4183972    15.330037  0.013532872  0.013909398            6 
   94500   0.91194063   -6.4540023    15.240654   0.01343973  0.013910388            5 
   94600   0.90222349   -6.5010328    15.258504  0.013441248  0.013911049            7 
   94700   0.91942098   -6.4359216    15.303182  0.013466369   0.01391174            7 
   94800   0.91045711   -6.4813089    15.311493   0.01345947   0.01391249            2 
   94900   0.89559794   -6.4703577    15.278617  0.013416418  0.013912943            4 
   95000   0.94204887   -6.4922177    15.343517  0.013459225  0.013913537            4 
   95100   0.89794137   -6.4470679    15.343207  0.013444801  0.013914109            7 
   95200   0.91597671    -6.464027    15.363761   0.01344867  0.013914516            3 
   95300   0.89842555   -6.4936482    15.317146  0.013393796  0.013914724            5 
   95400    0.8649676    -6.415779    15.333406   0.01339396  0.013914713            3 
   95500   0.90757962   -6.4205457       15.299  0.013349912  0.013914824            5 
   95600   0.89185875   -6.4505562    15.354701  0.013384502  0.013914919            7 
   95700   0.90099756   -6.4316355    15.396279  0.013406721  0.013915173            3 
   95800   0.89367113   -6.4407576    15.386559  0.013384272  0.013915306            2 
   95900   0.83177638   -6.3903287     15.24652  0.013248627   0.01391489           11 
   96000   0.89069804   -6.3973043    15.393619  0.013362516  0.013914593            3 
   96100    0.9242824   -6.4491525    15.468102  0.013413199  0.013914756            3 
   96200   0.87365742   -6.4513568    15.433528  0.013369307  0.013914692            4 
   96300   0.91332916   -6.4344831    15.428494  0.013351068  0.013914551            4 
   96400   0.88363891   -6.4551515    15.464152  0.013368043  0.013914477            3 
   96500   0.88243074   -6.4614521    15.495604   0.01338135  0.013914369            1 
   96600   0.90632685   -6.4387089    15.513755  0.013383157  0.013914369            2 
   96700   0.89131773   -6.4557069    15.523884  0.013378045  0.013914298            2 
   96800   0.90165437   -6.5067949    15.507785  0.013350366  0.013914113            9 
   96900   0.92420114   -6.5097796     15.65409   0.01346241  0.013914193            2 
   97000   0.86808533   -6.4886277    15.619654  0.013418947   0.01391437            5 
   97100   0.90527147   -6.4514551    15.603132  0.013390947  0.013914505            8 
   97200   0.91452688   -6.4532071    15.662647  0.013428196  0.013914677            5 
   97300   0.91488244    -6.445224    15.567877  0.013333228  0.013914651            2 
   97400   0.90251132   -6.5272547    15.549688  0.013303977  0.013914192            4 
   97500   0.89962889   -6.4850264    15.606502  0.013338891  0.013913752            8 
   97600   0.90162889   -6.4402211    15.620716   0.01333736  0.013913544           11 
   97700    0.8692463   -6.4838909    15.689486  0.013382366  0.013913505            4 
   97800    0.8759932   -6.4966925    15.666434  0.013349041  0.013913216           16 
   97900   0.89413891    -6.489404    15.700284  0.013364219  0.013912873            2 
   98000   0.92147819   -6.4892344    15.671666  0.013326247  0.013912328           13 
   98100   0.89656341   -6.5209025    15.627479  0.013275126  0.013911631            7 
   98200   0.87386213   -6.4791883    15.569144  0.013212104  0.013910582            3 
   98300    0.8953042   -6.4902095    15.584172  0.013211404  0.013909297           10 
   98400   0.86662105   -6.5022417    15.592697  0.013205197  0.013907802            4 
   98500   0.89965118   -6.5289502    15.501925  0.013114995  0.013906167            5 
   98600   0.90663504   -6.4517905    15.619913  0.013201414  0.013904737           14 
   98700   0.89046927   -6.4081935    15.724112  0.013276015  0.013903951           17 
   98800   0.90118704   -6.4474618    15.756812  0.013290158  0.013903322           14 
   98900    0.8739478   -6.4638826     15.79846  0.013311813  0.013902675            4 
   99000   0.87748339   -6.4479619    15.758369   0.01326462  0.013901686            3 
   99100   0.94192483   -6.5076983    15.739981  0.013235772  0.013900619            4 
   99200    0.8511919    -6.457559    15.779487  0.013255617  0.013899593            2 
   99300   0.89832649   -6.4191677    15.839076  0.013292276  0.013898746            3 
   99400   0.88323198   -6.4774837    15.898967  0.013329114  0.013898061            5 
   99500   0.93542718    -6.456257    15.782071  0.013217815  0.013897018            3 
   99600   0.88960799   -6.4194266    15.716332  0.013149542  0.013896087            6 
   99700   0.92714117   -6.5022034    15.670633  0.013098155  0.013894866            2 
   99800   0.93579182   -6.4305358    15.865819  0.013248012  0.013893995            5 
   99900   0.89478687   -6.4573472    15.915591  0.013276268  0.013893273            4 
  100000   0.89958861   -6.4111451    15.968501  0.013307084  0.013892695            6 
  100100   0.91965672   -6.4086686    16.011759  0.013329803  0.013892543            4 
  100200   0.91424025   -6.4318081    15.972185  0.013283587  0.013892258            5 
  100300   0.88016336   -6.4722306    15.966419  0.013265552   0.01389169            2 
  100400   0.85759965   -6.4916373     15.98401  0.013266941  0.013891035            6 
  100500   0.91631775   -6.5075645    15.980706     0.013251  0.013890346            6 
  100600   0.91221248   -6.4328921    16.006376  0.013259092  0.013889808            6 
  100700   0.89829615   -6.3879017    16.026285  0.013262401  0.013889531            3 
  100800   0.88120186   -6.4333622    16.032264  0.013254186    0.0138891            5 
  100900   0.91746091    -6.438721    16.213906  0.013391069  0.013888899            3 
  101000   0.93944601   -6.4218778    16.252456  0.013409617  0.013889091            9 
  101100   0.86218686   -6.3963531    16.210796  0.013362014  0.013889124           10 
  101200   0.84709261   -6.4209223    16.306446  0.013427574  0.013889001            4 
  101300   0.94006142   -6.4686522    16.306054  0.013413997  0.013889156            4 
  101400   0.86900771   -6.4152391    16.283428  0.013382173  0.013889215            6 
  101500   0.91606608   -6.5033634    16.235419  0.013329572  0.013889092            4 
  101600   0.94844664   -6.4667942    16.315253  0.013381933  0.013888935            5 
  101700   0.89675663   -6.4272091    16.301902  0.013357835  0.013888798            3 
  101800   0.90485685   -6.4540742    16.290842   0.01333566  0.013888554            8 
  101900   0.89821755    -6.445406    16.346036   0.01336771  0.013888381            3 
  102000   0.89672947   -6.3872999    16.407803  0.013405067  0.013888382            6 
  102100   0.91197379   -6.4828438    16.434549  0.013413769   0.01388849            2 
  102200   0.92994861   -6.4984267    16.481012  0.013438529  0.013888571            5 
  102300   0.88576669   -6.4919082    16.543973   0.01347668  0.013888863            4 
  102400   0.84711743   -6.5115539    16.531429  0.013453311  0.013888879            5 
  102500   0.88488004   -6.4874712     16.55639   0.01346048  0.013888947            8 
  102600   0.89362983   -6.4637141     16.62535  0.013503371  0.013889317            2 
  102700    0.8692726   -6.4405063    16.635716  0.013498634  0.013889734            1 
  102800   0.91598028   -6.5145814    16.525323  0.013396014  0.013890018            5 
  102900   0.88215405   -6.4541716    16.543376  0.013397616  0.013890273            4 
  103000   0.91382707   -6.4682662    16.617808  0.013444829  0.013890661            3 
  103100   0.92408896   -6.4661671    16.570525   0.01339357  0.013891079            3 
  103200   0.91932162   -6.4614479    16.600632  0.013404903  0.013891441            4 
  103300   0.92526893   -6.4387761    16.617784  0.013405763  0.013891784            6 
  103400   0.86254606   -6.4110986    16.599146  0.013377777  0.013892015           14 
  103500    0.9186663   -6.4623672    16.556722  0.013330694  0.013892025           18 
  103600   0.92724714   -6.4237274    16.680892  0.013417706  0.013891969           11 
  103700   0.90513749   -6.4557351    16.658372   0.01338667   0.01389223            8 
  103800   0.88016965    -6.464364     16.78305  0.013473868  0.013892412            6 
  103900   0.90053066   -6.4286246    16.792675   0.01346862  0.013892684           15 
  104000    0.9116726   -6.3720882    16.796644  0.013458849  0.013892942            5 
Loop time of 185.989 on 12 procs for 100000 steps with 864 atoms

Performance: 92908.898 tau/day, 537.667 timesteps/s
99.4% CPU use with 12 MPI tasks x no OpenMP threads

MPI task timing breakdown:
Section |  min time  |  avg time  |  max time  |%varavg| %total
---------------------------------------------------------------
Pair    | 9.4236     | 9.9754     | 10.361     |   9.3 |  5.36
Neigh   | 0.96485    | 0.99955    | 1.0357     |   2.4 |  0.54
Comm    | 5.9816     | 6.4018     | 7.1351     |  13.8 |  3.44
Output  | 2.4719     | 2.473      | 2.4801     |   0.1 |  1.33
Modify  | 164.74     | 165.04     | 165.26     |   1.4 | 88.74
Other   |            | 1.097      |            |       |  0.59

Nlocal:        72.0000 ave          79 max          68 min
Histogram: 4 2 1 0 2 0 1 0 0 2
Nghost:        1554.42 ave        1571 max        1537 min
Histogram: 1 1 0 3 1 2 1 1 1 1
Neighs:        8044.50 ave        8924 max        7461 min
Histogram: 2 1 3 1 1 2 0 0 0 2
FullNghs:      16088.0 ave       17684 max       15166 min
Histogram: 3 3 0 1 2 0 1 0 0 2

Total # of neighbors = 193056
Ave neighs/atom = 223.44444
Neighbor list builds = 5291
Dangerous builds = 0

#clear
#
#next RN
#
#jump SELF



Total wall time: 0:03:06
