
units lj                  # Use reduced LJ style units
atom_style atomic         # Uncharged point particles
atom_modify map hash      # Needed for indexing of clusters etc
                          # Used to be able to find where atoms are in relation to each other.

# Define a lattice with which to populate the simulation cell. With units
# set to 'lj' the second argument to the lattice command is the reduced
# density rho* and the spacings are multiples of that required to acheive
# that density. Also define a simulation cell called 'box' in lattice units
# and fill it with atoms. Here we're creating a box which is ten lattice
# constants in each direction.
lattice fcc 1.0 spacing 1 1 1                 # All equal sizes - gives the right reduced density.
Lattice spacing in x,y,z = 1.5874011 1.5874011 1.5874011

region box block 0 6 0 6 0 6 units lattice # Defines a region, "box", in lattice units
create_box 1 box                              # Creates a simulation box as specified above,
Created orthogonal box = (0.0000000 0.0000000 0.0000000) to (9.5244063 9.5244063 9.5244063)
  2 by 2 by 3 MPI processor grid
                                              # with one type of atom
create_atoms 1 box                            # Creates particles on lattice points
Created 864 atoms
  using lattice units in orthogonal box = (0.0000000 0.0000000 0.0000000) to (9.5244063 9.5244063 9.5244063)
  create_atoms CPU = 0.001 seconds


# Set the mass of the first (and only) atom type.
mass 1 1.0

# Lennard-Jones interactions between particles, 3.5 sigma cut-off. Apply
# long range tail corrections to energy and pressure and set all coefficients
# to unity since we work in reduced units here. Note that this doesn't shift
# the potential such that it goes to zero at the cutoff. That would require
# pair_modify('shift', 'yes').
pair_style lj/cut  3.5      # non-GPU version
pair_modify tail  yes
pair_coeff 1  1  1.0  1.0   # Intearaction between 1 and 1 set with epsilon = 1 and sigma = 1

write_data data.*
System init for write_data ...
Neighbor list info ...
  update every 1 steps, delay 10 steps, check yes
  max neighbors/atom: 2000, page size: 100000
  master list distance cutoff = 3.8
  ghost atom cutoff = 3.8
  binsize = 1.9, bins = 6 6 6
  1 neighbor lists, perpetual/occasional/extra = 1 0 0
  (1) pair lj/cut, perpetual
      attributes: half, newton on
      pair build: half/bin/atomonly/newton
      stencil: half/bin/3d
      bin: standard

#############################
#   M E L T   S Y S T E M   #
#############################

velocity all create 2.4 2750902 mom yes dist gaussian # Assign velocities
                                                    # Temperature 2.4, random number seed, zero linear momentum
						                                                        # Gaussian distribution

timestep 0.002   # simulation timestep
thermo 100       # output thermodynamic data every 100 steps

# Define a fix  in this case with index 1 applied to all
# particles in the simulation. This fix is for simulations
# in the anisotropic NPT ensemble. Note that we use the MTK
# correction.
fix 1 all npt temp 2.4 2.4 0.1 iso 5.68 5.68 0.5 mtk yes tchain 5 pchain 5 # Use NPT ensemble
                                                                         # Set temperature and pressure and damping
                                                                         # Numbers of thermostats in chain and in barostat
run 1000         # run for 10000 steps
Per MPI rank memory allocation (min/avg/max) = 3.633 | 3.633 | 3.634 Mbytes
Step Temp E_pair E_mol TotEng Press Volume 
       0          2.4   -8.3859253            0    -4.790092     -2.24275          864 
     100    1.3007594   -6.4407842            0   -4.4919034    5.3582762    891.69205 
     200    1.5828213   -6.0796178            0   -3.7081338    6.4338598    907.46239 
     300    1.7629056     -5.73851            0   -3.0972122    5.5953229    954.02439 
     400    1.8733232   -5.2785237            0   -2.4717912    6.0585808    994.36537 
     500      2.02574   -4.9360708            0   -1.9009777    5.7478153    1042.8978 
     600    2.2112838   -4.6895875            0   -1.3765009    5.7138268    1079.0368 
     700    2.3146746   -4.4629638            0  -0.99497044    5.6088298    1118.0222 
     800    2.4734008     -4.39503            0   -0.6892229    5.7937797    1123.7282 
     900    2.4206618   -4.2767239            0  -0.64993368    5.5531987    1146.9555 
    1000    2.3618098   -4.2459295            0  -0.70731524    5.7000582    1143.3852 
Loop time of 0.178809 on 12 procs for 1000 steps with 864 atoms

Performance: 966393.173 tau/day, 5592.553 timesteps/s
99.7% CPU use with 12 MPI tasks x no OpenMP threads

MPI task timing breakdown:
Section |  min time  |  avg time  |  max time  |%varavg| %total
---------------------------------------------------------------
Pair    | 0.067615   | 0.075612   | 0.087723   |   2.1 | 42.29
Neigh   | 0.011786   | 0.012748   | 0.014762   |   0.7 |  7.13
Comm    | 0.059631   | 0.073424   | 0.081981   |   2.3 | 41.06
Output  | 0.00019324 | 0.0002031  | 0.00025256 |   0.0 |  0.11
Modify  | 0.014622   | 0.015248   | 0.015653   |   0.3 |  8.53
Other   |            | 0.001574   |            |       |  0.88

Nlocal:        72.0000 ave          80 max          66 min
Histogram: 2 1 2 2 1 0 2 0 0 2
Nghost:        1314.75 ave        1327 max        1295 min
Histogram: 1 0 0 2 3 0 0 1 2 3
Neighs:        6211.67 ave        7136 max        5326 min
Histogram: 2 0 0 2 1 4 1 0 0 2

Total # of neighbors = 74540
Ave neighs/atom = 86.273148
Neighbor list builds = 80
Dangerous builds = 2

# Equilibrate just above the melting temperature to avoid step fn in T

fix 1 all npt temp 1.25 1.25 0.1 iso 5.68 5.68 0.5 mtk yes tchain 5 pchain 5
run 1000
Per MPI rank memory allocation (min/avg/max) = 3.634 | 3.634 | 3.634 Mbytes
Step Temp E_pair E_mol TotEng Press Volume 
    1000    2.3618098   -4.2459295            0  -0.70731524    5.7000582    1143.3852 
    1100    1.8617945   -4.5967525            0    -1.807293    5.9593679    1083.5566 
    1200      1.66126   -5.0091582            0   -2.5201524    5.9308167    1028.0056 
    1300    1.4533368   -5.3154554            0   -3.1379734    5.5185254    997.93023 
    1400    1.3100587   -5.5224566            0    -3.559643    5.2858775     978.0358 
    1500    1.3306301   -5.7450087            0   -3.7513736    5.2687861    956.68836 
    1600    1.2302857    -5.777427            0   -3.9341343     5.385203    950.58576 
    1700    1.2545134   -5.8251615            0   -3.9455694    5.6370291    940.07281 
    1800    1.2669685   -5.8434457            0   -3.9451925    6.1076728    931.13358 
    1900    1.2975362   -5.8185374            0   -3.8744858    5.5765884    942.23221 
    2000    1.2225624   -5.8503078            0   -4.0185867    5.1330896    948.19804 
Loop time of 0.176687 on 12 procs for 1000 steps with 864 atoms

Performance: 978003.228 tau/day, 5659.741 timesteps/s
99.7% CPU use with 12 MPI tasks x no OpenMP threads

MPI task timing breakdown:
Section |  min time  |  avg time  |  max time  |%varavg| %total
---------------------------------------------------------------
Pair    | 0.068234   | 0.077598   | 0.085758   |   1.8 | 43.92
Neigh   | 0.0096874  | 0.010635   | 0.011856   |   0.5 |  6.02
Comm    | 0.061994   | 0.070981   | 0.080871   |   2.0 | 40.17
Output  | 0.00022019 | 0.00022796 | 0.00027853 |   0.0 |  0.13
Modify  | 0.014702   | 0.015312   | 0.015754   |   0.3 |  8.67
Other   |            | 0.001932   |            |       |  1.09

Nlocal:        72.0000 ave          79 max          65 min
Histogram: 1 1 0 4 0 1 1 3 0 1
Nghost:        1466.08 ave        1476 max        1447 min
Histogram: 1 1 0 0 2 0 0 4 1 3
Neighs:        7466.67 ave        8131 max        6694 min
Histogram: 1 0 2 0 3 1 3 0 0 2

Total # of neighbors = 89600
Ave neighs/atom = 103.70370
Neighbor list builds = 67
Dangerous builds = 0


# Small amount of linear quench

fix 1 all npt temp 1.25 ${temp} 0.1 iso 5.68 5.68 0.5 mtk yes tchain 5 pchain 5
fix 1 all npt temp 1.25 0.5 0.1 iso 5.68 5.68 0.5 mtk yes tchain 5 pchain 5
run 2000
Per MPI rank memory allocation (min/avg/max) = 3.634 | 3.634 | 3.634 Mbytes
Step Temp E_pair E_mol TotEng Press Volume 
    2000    1.2225624   -5.8503078            0   -4.0185867    5.1330896    948.19804 
    2100    1.2312511   -5.8731076            0   -4.0283685    5.3824073    940.68679 
    2200     1.200115   -5.9262223            0   -4.1281333    5.7000498    929.13405 
    2300    1.1692598   -5.9435274            0   -4.1916677    6.3137833    916.85633 
    2400    1.1426142   -6.0129907            0   -4.3010531    5.8535956    918.46382 
    2500    1.0497059   -6.0395871            0   -4.4668508    5.9826508     911.6189 
    2600    1.0421536   -6.1345956            0   -4.5731744    5.7626471    907.33826 
    2700    1.0521503   -6.2506639            0   -4.6742651    5.4284482    904.10631 
    2800   0.95236141   -6.2390202            0   -4.8121314    5.7068021    898.54388 
    2900   0.89804238   -6.2531677            0   -4.9076632    5.8964106    893.62642 
    3000   0.89023258   -6.3215651            0   -4.9877618    5.7205347    891.66218 
    3100   0.87260879   -6.3508588            0   -5.0434606    6.0053364     884.0681 
    3200   0.85132837   -6.4204978            0   -5.1449832    5.9795594    878.92498 
    3300   0.78384444   -6.4720491            0   -5.2976433    5.9301375    875.03461 
    3400    0.7753962   -6.5885252            0   -5.4267771     5.594196     869.5481 
    3500   0.71354864   -6.6497943            0   -5.5807102    5.4289861    866.72925 
    3600   0.68353648   -6.7262874            0   -5.7021694    5.2776377    862.90454 
    3700   0.64309987   -6.7712627            0   -5.8077294    5.4358675    856.42643 
    3800   0.61775976   -6.8534916            0   -5.9279245    5.4508323     850.9883 
    3900   0.57577022   -6.8922457            0     -6.02959    5.7300491    843.75439 
    4000   0.54056621   -6.9355107            0   -6.1255999    5.9605477    837.67313 
Loop time of 0.36298 on 12 procs for 2000 steps with 864 atoms

Performance: 952117.614 tau/day, 5509.940 timesteps/s
99.8% CPU use with 12 MPI tasks x no OpenMP threads

MPI task timing breakdown:
Section |  min time  |  avg time  |  max time  |%varavg| %total
---------------------------------------------------------------
Pair    | 0.15219    | 0.17126    | 0.19267    |   2.9 | 47.18
Neigh   | 0.015902   | 0.017278   | 0.018846   |   0.6 |  4.76
Comm    | 0.1171     | 0.13894    | 0.15847    |   3.4 | 38.28
Output  | 0.00040207 | 0.00041694 | 0.00050467 |   0.0 |  0.11
Modify  | 0.029121   | 0.03028    | 0.031087   |   0.3 |  8.34
Other   |            | 0.004804   |            |       |  1.32

Nlocal:        72.0000 ave          76 max          69 min
Histogram: 2 3 0 0 2 2 0 0 2 1
Nghost:        1612.00 ave        1632 max        1596 min
Histogram: 1 1 3 2 0 2 0 1 1 1
Neighs:        8548.25 ave        9150 max        7730 min
Histogram: 2 0 0 2 0 2 1 2 0 3

Total # of neighbors = 102579
Ave neighs/atom = 118.72569
Neighbor list builds = 103
Dangerous builds = 0

#############################
# F R E E Z E  S Y S T E M  #
#############################

# Define solid atoms. This closely follows ten Wolde  Ruiz-Montero and Frenkel  Faraday Discuss  1996  104  93-110
# Compute components of the per-atom q6 vector
compute q6 all orientorder/atom degrees 1 6 components 6 nnn NULL cutoff 1.3 # compute the Q6 parameter.
                                                                             # Use all neighbours within 1.3 unit cell.

# get number of connections
compute coord_number all coord/atom orientorder q6 0.5

# An atom is solid if it has 8 or more connections (of a possible 14)
variable is_solid atom c_coord_number>=8
group solid dynamic all var is_solid    # Must be dynamic to update
dynamic group solid defined

# do clustering
compute cluster solid cluster/atom 1.3 # Create a cluster where all atoms within are solid and max 1.3 units from another member

# define chunks one chunk per cluster
compute clus_chunks solid chunk/atom c_cluster nchunk every compress yes  # Says which atoms are in which chunk

# count the size of each chunk
compute size_chunks solid property/chunk clus_chunks count


# Find the maximum entry in the vector of chunk sizes
variable max_n equal max(c_size_chunks)


# Thermo style which includes this variable
# thermo_style custom step temp pe vol v_max_n

thermo ${N}  # Print the thermo information every 100 steps
thermo 100  

# Reset the npt fix at a lower temperature (below freezing)

compute myRDF all rdf 100
fix 2 all ave/time 1 50 100 c_myRDF[*] file pcf.rdf mode vector


compute msd all msd com yes
variable twopoint equal c_msd[4]/6/(step*dt+1.0e-6)
fix 9 all vector 10 c_msd[4]
variable fit equal slope(f_9)/6/(10*dt)
thermo_style custom step temp pe c_msd[4] v_twopoint v_fit v_max_n


fix 1  all npt temp  ${temp} ${temp}  0.1  iso  5.68  5.68  0.5  mtk yes tchain  5  pchain  5
fix 1  all npt temp  0.5 ${temp}  0.1  iso  5.68  5.68  0.5  mtk yes tchain  5  pchain  5
fix 1  all npt temp  0.5 0.5  0.1  iso  5.68  5.68  0.5  mtk yes tchain  5  pchain  5

dump dmp2 all dcd ${N} traj.dcd
dump dmp2 all dcd 100 traj.dcd
dump dmp3 all dcd ${N} traj_unwrap.dcd
dump dmp3 all dcd 100 traj_unwrap.dcd
dump_modify dmp3 unwrap yes


# fix rnuntil all halt ${N} v_max_n >= 3980 error soft message no   # Stop when solidified

run 100000 # 5000000  # Run for this many steps
Neighbor list info ...
  update every 1 steps, delay 10 steps, check yes
  max neighbors/atom: 2000, page size: 100000
  master list distance cutoff = 3.8
  ghost atom cutoff = 3.8
  binsize = 1.9, bins = 5 5 5
  5 neighbor lists, perpetual/occasional/extra = 1 4 0
  (1) pair lj/cut, perpetual
      attributes: half, newton on
      pair build: half/bin/atomonly/newton
      stencil: half/bin/3d
      bin: standard
  (2) compute orientorder/atom, occasional
      attributes: full, newton on
      pair build: full/bin/atomonly
      stencil: full/bin/3d
      bin: standard
  (3) compute coord/atom, occasional
      attributes: full, newton on
      pair build: full/bin/atomonly
      stencil: full/bin/3d
      bin: standard
  (4) compute cluster/atom, occasional
      attributes: full, newton on
      pair build: full/bin/atomonly
      stencil: full/bin/3d
      bin: standard
  (5) compute rdf, occasional, copy from (1)
      attributes: half, newton on
      pair build: copy
      stencil: none
      bin: none
Per MPI rank memory allocation (min/avg/max) = 9.706 | 9.709 | 9.712 Mbytes
Step Temp PotEng c_msd[4] v_twopoint v_fit v_max_n 
    4000   0.54056621   -6.9355107 7.8794787e-31 1.6415579e-32 8.3333333e+20           13 
    4100   0.50815795   -6.9934894  0.022767715 0.00046275838  0.020728532           18 
    4200   0.51221949   -7.0277862  0.035154521 0.00069751026  0.015575996           16 
    4300   0.52167472   -7.0446787  0.045186957 0.00087571612  0.012228979           13 
    4400   0.49334825   -7.0739432  0.058457811 0.0011071554  0.011209125           13 
    4500   0.52102682   -7.0318405  0.068100041 0.0012611117  0.010704325           13 
    4600   0.49756484   -7.0403792  0.077154685 0.0013977296  0.010108598            8 
    4700   0.48948324   -7.0217931   0.08449879 0.0014982053 0.0095365495           12 
    4800   0.50646609   -7.0806293  0.091399754 0.0015868011 0.0089994827            7 
    4900   0.50016268   -7.0368487   0.10044758 0.0017082921 0.0085713669            9 
    5000   0.49583103   -7.0995176   0.10754334 0.0017923888 0.0082927431           13 
    5100   0.49887353   -7.0786891   0.10893254 0.0017799434 0.0078861238           11 
    5200   0.48502817   -7.0531281    0.1186883 0.0019020559 0.0075365996            6 
    5300   0.49279445   -7.0612808   0.11897396 0.0018706596 0.0072252593            7 
    5400   0.50174911   -7.0901451   0.12104353 0.0018679555  0.006834302            7 
    5500   0.51605592   -7.0735952     0.126738 0.0019202726 0.0065043947            7 
    5600    0.4859197   -7.0481616   0.13282774 0.0019766031 0.0062508714           11 
    5700   0.50544641   -7.0895666     0.136119 0.0019900436 0.0060346076           12 
    5800   0.46815793   -7.0887013   0.13782414 0.0019802318 0.0058000634           21 
    5900   0.49429956   -7.1122495   0.14342654 0.0020257984 0.0055962403           24 
    6000   0.49788029   -7.0873026   0.14830067 0.0020597313 0.0054313191           18 
    6100   0.52291174   -7.1001489   0.15207451 0.0020775205 0.0052788732           14 
    6200   0.50285792   -7.0851736   0.15803842 0.0021241722 0.0051590696           16 
    6300   0.49572207   -7.1161432   0.16322522 0.0021590636 0.0050571816           25 
    6400   0.48766958   -7.1320267   0.16449639   0.00214188 0.0049650121           20 
    6500   0.49412477   -7.0533786    0.1658473 0.0021262473 0.0048412473           42 
    6600   0.47733036   -7.0808558   0.17437743  0.002201735 0.0047404494           33 
    6700   0.48874242   -7.1169859   0.17286788 0.0021500979 0.0046554584           32 
    6800   0.52037877   -7.1231655   0.17755345    0.0021759 0.0045526891           32 
    6900   0.52484083    -7.117653   0.18746229 0.0022640372 0.0044904766           54 
    7000   0.48987375   -7.0872133   0.19297651 0.0022973393 0.0044473378           26 
    7100   0.48793956   -7.1161265   0.18917422 0.0022203545  0.004391459           27 
    7200   0.48199274   -7.1464748   0.18985531 0.0021973993 0.0043060285           48 
    7300   0.50265939   -7.1291838   0.19061558 0.0021759768  0.004221875           35 
    7400    0.5245589   -7.1405024   0.18415616 0.0020738305 0.0041185126           37 
    7500   0.49096819   -7.1082444   0.18584295 0.0020649215 0.0039966146           56 
    7600   0.50884103   -7.1492409   0.19225827 0.0021080949 0.0038957445           31 
    7700   0.49099104   -7.1232262   0.20146753 0.0021803844   0.00382085           23 
    7800   0.50341385   -7.1601119   0.20981693 0.0022416337 0.0037775556           23 
    7900    0.5021561   -7.1419414   0.21027207 0.0022180596 0.0037367318           29 
    8000   0.52547535   -7.0805417   0.20855287 0.0021724256 0.0036832842           26 
    8100   0.51652011   -7.1610894   0.20846333 0.0021446844 0.0036231825           29 
    8200   0.49695002   -7.1385273    0.2139259 0.0021740436 0.0035635565           18 
    8300   0.48356804   -7.1330272   0.22680643 0.0022771728 0.0035282385           33 
    8400    0.5007252   -7.1332751   0.23136838 0.0022953211 0.0035107369           70 
    8500   0.48941478   -7.1451399    0.2329948 0.0022842627 0.0034924392           32 
    8600    0.5102752   -7.1579878   0.23397641 0.0022672131 0.0034655332           23 
    8700   0.49733191   -7.1200248   0.23048145 0.0022076766 0.0034308288           14 
    8800   0.49442053   -7.1420231   0.22822039 0.0021611778  0.003386205           15 
    8900   0.49660592   -7.1399442   0.23238056 0.0021758478 0.0033377688           15 
    9000   0.50014672   -7.1484099   0.24257458 0.0022460608 0.0033071695           44 
    9100   0.49484307   -7.1196998   0.23892531 0.0021879606 0.0032752366           42 
    9200   0.48938475   -7.1561735   0.24367284 0.0022071814 0.0032409987           39 
    9300    0.5238605   -7.1144173   0.23980812 0.0021488182  0.003205562           36 
    9400   0.48047362    -7.138133   0.24110132  0.002137423 0.0031620629           38 
    9500   0.49350539   -7.1332059   0.24399418 0.0021402997 0.0031230818           17 
    9600    0.5193317   -7.1275909   0.25031225 0.0021728493  0.003088329           30 
    9700   0.47233501    -7.136376    0.2546148 0.0021874122 0.0030612117           65 
    9800   0.49443092   -7.1265364   0.24921131 0.0021191436 0.0030307076           26 
    9900   0.52251694   -7.1473009   0.24027494 0.0020225162  0.002985742           36 
   10000    0.4867366   -7.1512918   0.23866033  0.001988836 0.0029330858           59 
   10100   0.48323521   -7.1014462   0.23659727 0.0019521226 0.0028800569           40 
   10200   0.50860114   -7.1319041   0.23335549  0.001906499 0.0028227729           44 
   10300   0.48165688   -7.1374055   0.23860747 0.0019304811 0.0027694549           65 
   10400   0.48284926   -7.1550993   0.23393483 0.0018744777 0.0027152703           55 
   10500   0.51874722   -7.1334391   0.23701722 0.0018810889 0.0026624549           76 
   10600   0.50939535   -7.1174388   0.24128975 0.0018969319 0.0026143304           50 
   10700   0.49398367   -7.1630986   0.24896416 0.0019389731 0.0025747369           49 
   10800   0.49203742   -7.1509927    0.2544804 0.0019635833 0.0025411816           51 
   10900   0.48422148   -7.1215951   0.25610354 0.0019579781 0.0025119844           39 
   11000   0.47950555   -7.1468016    0.2526208 0.0019137939 0.0024797183           38 
   11100   0.48975374   -7.1791852   0.25368604 0.0019045498 0.0024469764           45 
   11200   0.50934381   -7.1530036   0.26283658 0.0019556293 0.0024193669           39 
   11300   0.51498279   -7.1497658   0.25533937 0.0018830336 0.0023916344           33 
   11400   0.50820897   -7.1226445    0.2542804 0.0018587747 0.0023593559           18 
   11500   0.49591483   -7.1213965   0.26181864 0.0018972364 0.0023305968           27 
   11600   0.50586136   -7.1361219   0.25811385 0.0018542661 0.0023040865           31 
   11700   0.49808768    -7.170679    0.2482369  0.001768069 0.0022695492           64 
   11800   0.49693457   -7.1778215   0.25037235 0.0017681662 0.0022328607           45 
   11900   0.50188142   -7.1801254   0.25403352 0.0017789462 0.0021995555           49 
   12000   0.48471312   -7.1330589   0.25258536 0.0017540649  0.002166854           39 
   12100   0.48623685   -7.2001367   0.25212854 0.0017364224 0.0021345913           23 
   12200   0.51419891   -7.1571412   0.24977305    0.0017061 0.0021010038           36 
   12300   0.48701002   -7.1446914   0.24931575  0.001689131 0.0020671747           34 
   12400   0.48325194   -7.1622173   0.24240414   0.00162906 0.0020309779           42 
   12500   0.51589303   -7.1546309   0.24356074 0.0016237382 0.0019940212           31 
   12600   0.50981801   -7.1906152   0.24211382 0.0016012818 0.0019584741           25 
   12700    0.4778891   -7.1402077   0.23936595 0.0015706427 0.0019212033           38 
   12800   0.50365618   -7.1596814   0.23850979  0.001552798 0.0018850471           47 
   12900   0.50952114   -7.1488328   0.24163909  0.001560976 0.0018503582           93 
   13000    0.4912477   -7.1767464   0.24455135 0.0015676368 0.0018187211           58 
   13100   0.51514876   -7.1807813   0.24341289  0.001548428 0.0017879131           81 
   13200   0.50899026   -7.1446904   0.24127132 0.0015231775 0.0017575708           51 
   13300   0.49555368   -7.1379921   0.23699614 0.0014849382 0.0017244342           89 
   13400   0.48105243   -7.1383665   0.23792902  0.001479658 0.0016923337           95 
   13500   0.48266496    -7.161179   0.24767336 0.0015288479 0.0016640791           80 
   13600   0.51146357   -7.1366993   0.25035609 0.0015340446 0.0016397934           39 
   13700   0.49915155   -7.1379996    0.2493781 0.0015168984 0.0016165328           53 
   13800     0.495457   -7.1720562   0.25025071 0.0015111757 0.0015926896           59 
   13900   0.52441163   -7.1813371   0.25451416 0.0015258642 0.0015718938           94 
   14000   0.48945368   -7.1422578   0.25585684 0.0015229573 0.0015522775           49 
   14100   0.47584575   -7.1619375   0.25677753 0.0015175977 0.0015327768           38 
   14200   0.51522218   -7.1486748   0.25938749  0.001522227 0.0015150174           95 
   14300    0.5016354    -7.172725   0.26258591 0.0015302209 0.0014983444           85 
   14400   0.50763316   -7.1705273   0.25936401 0.0015009491 0.0014826156           83 
   14500   0.51496726   -7.1708045   0.25940697 0.0014908446 0.0014654545           95 
   14600   0.49461358   -7.1600303   0.26448076 0.0015095933 0.0014498785           48 
   14700   0.49374194   -7.1388676   0.26435676 0.0014986211  0.001435173          102 
   14800   0.50585059   -7.1473385   0.26190383 0.0014746837 0.0014202754           56 
   14900   0.48273803   -7.1712648   0.26074418 0.0014583007 0.0014046078           63 
   15000   0.47635635   -7.1333567   0.26124263 0.0014513479 0.0013887849          104 
   15100   0.49286865   -7.1379789   0.26564562 0.0014660354 0.0013741065           40 
   15200   0.50940507   -7.1503112   0.26524487 0.0014541933 0.0013608944           78 
   15300   0.50576449   -7.1388471   0.26129494  0.001423175 0.0013465582           63 
   15400   0.48480942   -7.1707973    0.2592759 0.0014030081 0.0013308905           99 
   15500   0.50068077   -7.1282592   0.26257673 0.0014117028 0.0013163772          100 
   15600   0.50523444   -7.1471623    0.2665563 0.0014239118 0.0013031047           59 
   15700   0.51688392   -7.1710826   0.26988666 0.0014325194 0.0012910974           77 
   15800   0.48813136   -7.1651104   0.26674721 0.0014068945 0.0012792512           32 
   15900   0.51519598    -7.134367   0.26760164 0.0014025243 0.0012667038           34 
   16000   0.49072481   -7.1702686   0.27158365 0.0014144982 0.0012555644           29 
   16100   0.49661899   -7.1253385   0.27613701 0.0014292805 0.0012460334           32 
   16200    0.5013537   -7.1337396   0.27706351 0.0014252238 0.0012372269           53 
   16300   0.50127307   -7.1150357   0.27557233 0.0014088564 0.0012279187           20 
   16400   0.48120734   -7.1630617   0.27908043 0.0014180916 0.0012189791           68 
   16500   0.50022223    -7.153646   0.28239817 0.0014262533 0.0012113055           43 
   16600   0.47763412   -7.1296983   0.28218747 0.0014166037 0.0012042603           67 
   16700   0.47906071   -7.1675838   0.27596544  0.001377073 0.0011956735           30 
   16800   0.49764146   -7.1660313   0.27721502 0.0013750745  0.001186253           33 
   16900    0.4971425   -7.1280419   0.27966631 0.0013790252 0.0011776573           36 
   17000   0.51199276    -7.156544   0.27755365 0.0013605571 0.0011688978           26 
   17100   0.49605147   -7.1587561   0.27125591 0.0013219099 0.0011591286           31 
   17200   0.48433352   -7.1629743   0.27355574 0.0013253669 0.0011484546           45 
   17300   0.49531459   -7.1552722   0.27869919 0.0013424816 0.0011393307           39 
   17400   0.52627619   -7.1606975   0.27610109 0.0013223232 0.0011304601           24 
   17500   0.50686836   -7.1689626    0.2791905 0.0013294785 0.0011220332           19 
   17600   0.49007449   -7.1683888   0.27385243 0.0012966497 0.0011125536           42 
   17700   0.49944132   -7.1567237   0.27322385 0.0012863646 0.0011027878           24 
   17800   0.50367799   -7.1712761   0.28166612 0.0013186616 0.0010940383           25 
   17900   0.50140784   -7.1798549   0.28337836 0.0013192661 0.0010865977           56 
   18000   0.49075853   -7.1574785    0.2785612 0.0012896352 0.0010787648           36 
   18100   0.49202151   -7.1557168   0.27396114 0.0012613312 0.0010694191           30 
   18200   0.51725369   -7.1337544   0.27296187 0.0012498254 0.0010599813           53 
   18300   0.48138988   -7.1848583   0.27406251 0.0012480077 0.0010503807           46 
   18400   0.52320944   -7.1482881   0.27544581   0.00124749 0.0010413186           44 
   18500   0.48698939   -7.1596161   0.27597347 0.0012431237 0.0010323765           36 
   18600    0.4942461   -7.1725939   0.28171144  0.001262148 0.0010239128           59 
   18700   0.48851189    -7.188086   0.28982427 0.0012915519 0.0010179179           63 
   18800   0.50574801   -7.1687922   0.29691137 0.0013160965 0.0010133873           56 
   18900   0.48987036   -7.1690328   0.29690927 0.0013091237 0.0010093488           47 
   19000   0.47808518   -7.1988058   0.29828284  0.001308258 0.0010054201           28 
   19100   0.48702097   -7.1519978   0.30122206 0.0013142323 0.0010016975           45 
   19200   0.50933808   -7.1622423   0.29613598 0.0012853124 0.00099799354           51 
   19300   0.51225959   -7.1816696   0.28797255 0.0012434048 0.00099274025           54 
   19400   0.49185398   -7.1632319   0.28494578 0.0012239939 0.00098599184           41 
   19500   0.48313951   -7.1719788   0.28498823 0.0012178984 0.00097881538           62 
   19600   0.50239246   -7.1705908    0.2865423 0.0012182921 0.00097205028           72 
   19700   0.49445815   -7.1750905   0.29158918 0.0012334567 0.0009660403           63 
   19800    0.5082575   -7.1703151   0.29294869  0.001232949 0.00096066592           66 
   19900   0.49349789   -7.1728843   0.29308571 0.0012273271 0.00095558965           56 
   20000   0.50196744   -7.1969173   0.29350149 0.0012229228 0.00095022663           39 
   20100   0.52914707   -7.1448378   0.29319899 0.0012155845 0.00094485568           30 
   20200   0.51962353   -7.1629475   0.29348773 0.0012107579 0.00093965078           52 
   20300   0.50972648   -7.1831555   0.30034502 0.0012329434 0.00093498956           52 
   20400    0.5078602   -7.1850983   0.30106732 0.0012298502 0.00093110505           51 
   20500   0.50664749   -7.1840855   0.29901451 0.0012155061 0.00092671232           53 
   20600   0.49305548    -7.174134   0.30008818 0.0012139489 0.00092199542           26 
   20700   0.49996318   -7.1436857   0.29780163 0.0011988793 0.00091767185           27 
   20800   0.50237351   -7.1526233   0.30199681 0.0012099231 0.00091331908           36 
   20900   0.49819615   -7.1845323   0.29994173 0.0011959399 0.00090914489           42 
   21000   0.50143598   -7.1697214   0.29891163 0.0011861572 0.00090456692           44 
   21100   0.49301475   -7.1428164   0.30577552 0.0012076442 0.0009005614           57 
   21200   0.52746138   -7.1712961   0.31134144 0.0012238264 0.00089787155           43 
   21300   0.51975249   -7.1817973   0.30701772 0.0012011647 0.0008944285           43 
   21400   0.50388581   -7.1923681    0.3127431  0.001217847 0.00089167587           59 
   21500   0.50465681   -7.1255796   0.31611469 0.0012252507 0.00088918502           55 
   21600   0.49522058    -7.142817   0.32016619  0.001235209 0.00088766205           69 
   21700   0.49148387   -7.1739408   0.31791239 0.0012208617 0.00088578425           43 
   21800   0.49754963   -7.1806228   0.31742574 0.0012134011 0.00088354025           44 
   21900   0.49444024   -7.1608344    0.3143634 0.0011962077 0.00088117275           17 
   22000   0.50123043   -7.1634457   0.32111632 0.0012163497 0.00087892088           47 
   22100   0.49335509   -7.1147526   0.32062396 0.0012089893 0.0008771151           25 
   22200   0.51479279   -7.1976673   0.31608662 0.0011865113 0.00087472932           41 
   22300   0.49927664   -7.1528288   0.31385954 0.0011728682 0.00087188685           40 
   22400   0.47735576   -7.1402446    0.3148198 0.0011712046 0.00086884479           45 
   22500   0.48777176   -7.1700156   0.31545493 0.0011683516 0.00086577254           47 
   22600    0.5025832   -7.1660701   0.31548303 0.0011632855 0.00086270772           47 
   22700   0.51656661   -7.1475148   0.31708775 0.0011640519 0.00085995625           44 
   22800   0.48644074   -7.1487924   0.31525527 0.0011522488 0.00085680623           43 
   22900   0.48355448   -7.1763368   0.31587334 0.0011494663 0.00085376677           28 
   23000   0.49662962   -7.1828935   0.31298715 0.0011340114 0.00085027139           22 
   23100   0.50735473   -7.1708866   0.31102921  0.001122039 0.00084672376           38 
   23200   0.50080763   -7.1779945   0.31018955 0.0011141866 0.00084257059           39 
   23300   0.51688562   -7.1980571    0.3193284 0.0011420901 0.00083925707           20 
   23400   0.53275036   -7.1325529   0.32190902 0.0011463996 0.00083684243           25 
   23500   0.50961526    -7.185238   0.31457519 0.0011155148 0.00083371608           25 
   23600   0.50094825   -7.2040366   0.32229417 0.0011380444 0.00083088176           64 
   23700   0.50784291   -7.1587379   0.31937997 0.0011229956 0.00082829938           40 
   23800   0.49672744   -7.1546325   0.32017329 0.0011210549 0.00082527782           26 
   23900   0.50738763   -7.1909874   0.32259627 0.0011248126 0.00082261944           38 
   24000   0.51150597   -7.1803744   0.31922773 0.0011084296 0.00081973448           22 
   24100    0.4819585   -7.1839695   0.32745371 0.0011322742 0.00081702745           16 
   24200   0.50074198   -7.1422575    0.3360148 0.0011570757 0.00081540731           17 
   24300   0.49338415   -7.1653981   0.33070674 0.0011341109 0.0008138653           21 
   24400   0.51025096   -7.1868166   0.32578531 0.0011126547 0.00081174364           21 
   24500   0.51099931   -7.1874098   0.31895552 0.0010848827 0.00080860153           28 
   24600    0.5088741   -7.1296076   0.31947556 0.0010822343 0.00080523585           25 
   24700   0.49700349   -7.1871642   0.32853314 0.0011084114 0.00080240952           31 
   24800   0.51391667   -7.1986182   0.33020395 0.0011095563 0.00080038526           23 
   24900   0.50264932   -7.1908495   0.33993609  0.001137671 0.0007988329           28 
   25000   0.50243847   -7.1599406   0.34817168 0.0011605723 0.00079828755           45 
   25100   0.49118785   -7.1805086   0.34694304 0.0011518693 0.0007978797           43 
   25200   0.49514519   -7.1497038   0.34598987 0.0011441464 0.0007973091           29 
   25300   0.50251471   -7.1947181    0.3397241 0.0011189858 0.00079636995           23 
   25400   0.50249687   -7.1499071   0.33051091 0.0010843533 0.00079441776           31 
   25500   0.50023793    -7.161817   0.33285739 0.0010877692 0.00079200289           28 
   25600   0.50187307   -7.1582873   0.33384581 0.0010867376 0.00078971354           27 
   25700   0.49572317   -7.1979615   0.33531177 0.0010872625 0.00078761607           23 
   25800   0.48131167   -7.1644485   0.32785417 0.0010589605 0.00078506653           38 
   25900   0.47649782   -7.2114517   0.32609215 0.0010492025 0.00078209262           21 
   26000   0.52020815   -7.1675014    0.3241214 0.0010388506 0.00077868001           27 
   26100   0.48108054   -7.1446433   0.33502093 0.0010696709 0.00077596262           21 
   26200   0.48567476   -7.1347786   0.33290046 0.0010588437 0.00077366116           21 
   26300   0.49267426   -7.1616909   0.33112496 0.0010491919 0.00077116278           25 
   26400   0.47100364   -7.1316329    0.3335216 0.0010527828 0.00076847127           25 
   26500   0.49403749   -7.1547366   0.33529936 0.0010544005 0.00076607507           20 
   26600   0.51457301   -7.1508591   0.33102067 0.0010370322 0.00076339317           24 
   26700    0.4969704   -7.2001214   0.33253469 0.0010378735 0.00076077899           20 
   26800   0.51874812   -7.1451127   0.32359822 0.0010062133 0.00075760933           12 
   26900   0.51517772     -7.18349   0.32309207 0.0010009048 0.00075396959           22 
   27000   0.49293148   -7.1712663   0.32637942 0.0010073439 0.00075070422           10 
   27100   0.48660958   -7.1676566   0.32187146 0.00098976462 0.00074717352           15 
   27200   0.50402753    -7.132435   0.32402412 0.00099272095 0.00074368611           18 
   27300   0.47634665   -7.2046307   0.32296627 0.00098585552 0.00074008495           17 
   27400   0.49768812   -7.1759949   0.33011057 0.0010039859 0.00073693437           30 
   27500   0.50817032   -7.1795257   0.33297194 0.0010090059 0.00073424022           21 
   27600   0.50148616   -7.1556415   0.33180953 0.0010018404 0.00073164323           20 
   27700   0.49114737   -7.2162162   0.33136793 0.00099689508 0.00072888549           27 
   27800   0.49911581   -7.1597065   0.33785743 0.0010127621 0.00072638208           27 
   27900   0.49792838   -7.1670423   0.34083099 0.0010180137 0.00072432938           35 
   28000   0.48410309   -7.1525263   0.34269177  0.001019916 0.00072239285           29 
   28100    0.5105377   -7.2112611   0.34353771 0.0010187951 0.00072067711           33 
   28200    0.4972734   -7.1600294   0.33718586 0.00099641211 0.00071850113           28 
   28300   0.50477183   -7.1464557   0.33988214 0.0010008308 0.00071630661           26 
   28400   0.48679981   -7.1817506   0.33939134 0.0009958666 0.00071406404           37 
   28500   0.50122818   -7.1700072   0.34257048 0.0010016681 0.00071198235           66 
   28600   0.51968686   -7.1889301   0.34351982 0.0010009319 0.00071004471           56 
   28700   0.48664771   -7.1815554   0.34451345 0.0010003294 0.00070823937           33 
   28800   0.49993215   -7.2111223   0.35147127 0.0010169886 0.00070663577           76 
   28900   0.51548673   -7.1516525   0.35547925 0.0010250267 0.00070557549           49 
   29000   0.49067853   -7.1795895   0.35374208 0.0010165002 0.00070447169           65 
   29100   0.50231503   -7.1745669    0.3509435 0.0010049928 0.00070303803           72 
   29200   0.49290354    -7.174869   0.35256513  0.001006179 0.00070165146           71 
   29300   0.52353598   -7.2014687   0.36228352 0.0010303854 0.0007005033           72 
   29400   0.50434998   -7.2001953   0.36633494 0.0010383643 0.00070013173           53 
   29500    0.5274375   -7.2120405   0.35573225 0.0010048933 0.00069922575           47 
   29600   0.49606809   -7.2003608   0.34823281 0.00098038515 0.00069760686           30 
   29700   0.50148332   -7.1862834   0.35298802 0.00099042653 0.00069580539           44 
   29800   0.50796744   -7.1347557   0.35352517 0.00098860506 0.00069433255           47 
   29900   0.48651246   -7.2089769   0.35273718 0.00098310248 0.00069279553           51 
   30000    0.4712547   -7.1397335   0.35420673 0.00098390757 0.00069123876           56 
   30100    0.5136004   -7.1645118   0.35925653 0.00099461939 0.00068989349           48 
   30200   0.48980169   -7.1628399   0.36238485 0.00099995818 0.00068881065           43 
   30300   0.51317579   -7.1407803   0.36805616 0.0010122556 0.0006880658           45 
   30400   0.50132487   -7.1184022   0.37233856 0.0010206649 0.00068768168           73 
   30500   0.49681935   -7.1823726   0.37475153 0.0010239113 0.00068732647           57 
   30600   0.50858147   -7.1671625   0.36246143 0.00098709537 0.00068657391           54 
   30700   0.49606091   -7.2132368     0.365597 0.0009923914 0.00068552804           43 
   30800   0.51763656   -7.1578388   0.36681352 0.00099246082 0.00068451133           47 
   30900   0.50272358   -7.1697526   0.37032296 0.00099871346 0.00068372482           49 
   31000   0.50138736   -7.1676549   0.36778092 0.00098865837 0.00068291893           45 
   31100   0.50795587   -7.1835763   0.36559315 0.00097961722 0.00068178984           55 
   31200   0.51875142   -7.1377995   0.36412676 0.00097256078 0.00068066739           36 
   31300   0.51796792   -7.2049773   0.36864831 0.00098149175 0.00067949302           36 
   31400     0.497192   -7.1696303   0.37717309 0.0010009901 0.00067888884           49 
   31500   0.48990064   -7.1799227   0.38196827 0.0010104981 0.00067856824           52 
   31600   0.51464176   -7.1760158    0.3870006 0.0010205712 0.00067853942           70 
   31700   0.47967062   -7.2082799   0.39170653 0.0010297227 0.00067883462           81 
   31800   0.49495386   -7.1949183   0.39160839 0.0010262274 0.00067919983           97 
   31900   0.49953494   -7.1821091   0.39025158  0.001019466 0.0006794311           49 
   32000   0.53939849   -7.1754254    0.3832772 0.00099811769 0.00067937487           44 
   32100   0.49447272   -7.1703677   0.38337912 0.00099527289 0.00067899157          114 
   32200   0.49313642   -7.1763896   0.38351517 0.00099253407 0.00067857035          121 
   32300   0.48437222   -7.2007607   0.38087319 0.00098264496 0.00067803473           61 
   32400   0.48950225   -7.1589669   0.38185144 0.00098212818 0.00067746112           61 
   32500   0.50334591   -7.1780062   0.38377395 0.00098403574 0.00067682316           79 
   32600   0.51342115   -7.1676087   0.38146643 0.00097511866 0.00067629586           49 
   32700    0.5195542    -7.177911   0.38695325 0.00098611939 0.00067572703           51 
   32800   0.48312683   -7.1828555   0.39390677 0.0010007794 0.00067554164           58 
   32900   0.48676659   -7.1527105   0.39913616 0.0010109832 0.00067573124          119 
   33000   0.50990618   -7.1601371   0.40150778 0.0010139085 0.0006760693          137 
   33100   0.49602401   -7.1913065   0.40351088 0.0010158884 0.00067641246          101 
   33200   0.49021801   -7.1844344   0.39743933 0.00099758868 0.0006766668          155 
   33300   0.50409721   -7.1892314   0.39937594 0.00099943927 0.00067659965          141 
   33400   0.47645174   -7.1578421   0.39271773 0.00097983464 0.0006764298           70 
   33500   0.47786687   -7.1898529   0.38711365 0.00096296928 0.00067582468           55 
   33600   0.50553356   -7.1542711   0.37888632 0.0009396982 0.00067484746           55 
   33700   0.51267245   -7.1724644   0.37821605 0.00093525234 0.00067367076           47 
   33800   0.49932271   -7.1904048   0.37501715 0.00092459849 0.00067229458           51 
   33900   0.48888499   -7.1860761   0.37616306 0.00092468793 0.00067077308           82 
   34000    0.5157062   -7.1791271   0.37982515 0.00093094397 0.00066942646           81 
   34100    0.4898076    -7.185134    0.3785834 0.00092517936 0.00066810545           48 
   34200   0.47948918   -7.2053541   0.37746684 0.00091975348 0.00066673759           73 
   34300   0.48770277   -7.1849692   0.38145223 0.00092675468 0.00066538101          109 
   34400   0.49824595   -7.1496237   0.38407597 0.00093041659 0.00066425211          132 
   34500   0.52085518   -7.1545858   0.38809227 0.00093742093 0.00066323408           62 
   34600   0.49509341   -7.1656021   0.38939239 0.00093784292 0.00066239197           48 
   34700   0.48833791   -7.1886326   0.38772165 0.00093112787 0.00066142394           44 
   34800   0.50017082   -7.1712239    0.3863792 0.00092523754 0.00066044378           55 
   34900   0.49891234   -7.1769833    0.3869916 0.00092404869 0.00065941641           76 
   35000   0.52062413   -7.1926816   0.37757956 0.00089899894 0.00065801601           93 
   35100   0.50973897   -7.1940718   0.38163318 0.00090606166 0.00065652482           90 
   35200   0.50930045   -7.1490049   0.38745376 0.00091726742 0.00065527998          146 
   35300   0.49087592   -7.1457868    0.3957074 0.00093415343 0.00065440057          131 
   35400   0.48540822   -7.1929322   0.40213745 0.00094665123 0.00065383823          146 
   35500   0.49344967   -7.1965203   0.40020106 0.00093943909 0.00065338457          157 
   35600   0.51121838   -7.1973924   0.40342863 0.0009443554 0.00065292299          137 
   35700   0.49004066    -7.178633   0.40243354 0.00093938734 0.00065246495          132 
   35800   0.48549189   -7.2200169    0.4020185 0.00093579724 0.00065197039          169 
   35900   0.50809329   -7.1835585   0.40741725 0.00094572247 0.00065159272          182 
   36000    0.4780992   -7.1568878   0.40588903 0.00093955792 0.00065127512          207 
   36100   0.48371658   -7.2025428   0.40168423 0.0009272489 0.00065071124          199 
   36200   0.50585766   -7.1995778   0.40192042 0.00092523115 0.00065013492          208 
   36300    0.5046428   -7.1532211   0.39864378 0.00091516017 0.00064943971          199 
   36400   0.48503545    -7.208615   0.39314519 0.00090005767 0.00064849276          200 
   36500   0.50415237   -7.2036594   0.39212282 0.00089525756 0.00064733014          187 
   36600   0.48911549   -7.1632542   0.39234828 0.00089332485 0.00064618456          180 
   36700   0.50279705   -7.1783083   0.40260588 0.00091418227 0.00064523754          174 
   36800   0.50643071    -7.188905   0.40283113 0.00091220815 0.00064458632          159 
   36900   0.49691491   -7.2242914   0.40413723 0.00091268569 0.00064385827          185 
   37000   0.52446897   -7.1774902   0.40443279 0.00091088466 0.00064323684          168 
   37100   0.48284897   -7.1706819   0.41122378 0.00092368322 0.00064270945          179 
   37200   0.47813646   -7.1970748   0.40919786 0.00091666186 0.00064225246          201 
   37300   0.48695428   -7.2092562   0.40346989 0.00090140725 0.00064157156          204 
   37400   0.50218777    -7.177121   0.40858484 0.00091039401 0.00064087819          180 
   37500   0.49055082   -7.1913154   0.41771926  0.000928265 0.00064045966          171 
   37600   0.50564915   -7.2128078   0.41965346 0.00093008301 0.00064024614          178 
   37700   0.53718434   -7.1806928   0.41886931 0.00092588264 0.00064014605          186 
   37800   0.50163767   -7.1828087    0.4140373 0.00091278064 0.0006397693          198 
   37900   0.49205568    -7.209662   0.41357553 0.0009093569 0.00063931531          220 
   38000   0.50162038   -7.1977605   0.40890167 0.00089671418 0.00063868439          214 
   38100   0.52635124   -7.1895685   0.41574805 0.00090933519 0.00063800028          216 
   38200   0.49442313     -7.19123    0.4183525 0.00091263634 0.0006376151          229 
   38300   0.49912502   -7.1868074   0.41708663 0.00090749919 0.00063720376          207 
   38400   0.51873112   -7.1829996   0.41063313 0.00089113092 0.00063662093          191 
   38500   0.49348096    -7.205657   0.40684413 0.00088061498 0.00063579866          169 
   38600   0.49837235   -7.2197167   0.41397447 0.00089372726 0.00063500352          220 
   38700   0.48493603   -7.2230177   0.42062488 0.00090573832 0.00063449427          222 
   38800   0.49981817   -7.1845685   0.42888141 0.00092113705  0.000634299          198 
   38900   0.51660108    -7.161052   0.42346177 0.00090715887 0.0006341213          189 
   39000    0.4705776   -7.1911139   0.42479522 0.00090768208 0.00063378652          206 
   39100   0.48856967   -7.1750611   0.42622717 0.00090841254 0.00063342797          247 
   39200   0.50737214   -7.1919021   0.43086048 0.00091594488 0.00063320608          259 
   39300   0.48939988   -7.2341876   0.42711893 0.00090568051 0.00063304056          235 
   39400   0.49933726   -7.2149723   0.42221996 0.0008930202 0.00063264139          249 
   39500   0.50104855   -7.1956988   0.41390534 0.00087321801 0.00063190454          238 
   39600   0.51677309   -7.1514305   0.41924228 0.00088224384 0.00063117381          230 
   39700   0.47746983   -7.1694021   0.42277274 0.00088743227 0.00063059596          228 
   39800   0.46932695   -7.1836947   0.43070946 0.00090182047 0.00063016177          212 
   39900   0.49557723   -7.1898174   0.43016066 0.00089841406 0.00062996196          196 
   40000   0.51170523   -7.1971587    0.4240068 0.00088334749 0.00062952681          202 
   40100   0.49520709   -7.1788604    0.4275652 0.00088853947 0.00062900033          226 
   40200   0.51230761    -7.178422   0.42865547 0.00088858926 0.00062857473          226 
   40300   0.49294796   -7.1582509   0.43427595 0.0008980065 0.00062822626          222 
   40400   0.49519763   -7.2285532   0.42914775 0.00088520574 0.00062786755          212 
   40500   0.49236827   -7.2153832   0.42781102 0.00088026957 0.00062736095          227 
   40600    0.4910488   -7.1823055   0.42327234 0.00086878558 0.00062671288          224 
   40700    0.5108598    -7.190219   0.42578285 0.00087179124 0.00062601867          242 
   40800   0.49194798   -7.2074624   0.42225097 0.00086244069 0.00062535708          245 
   40900    0.4999266   -7.2171104   0.41646398 0.00084854111 0.00062444847          225 
   41000   0.51350985   -7.1913462   0.42374701 0.00086127441 0.00062357621          218 
   41100   0.51935186   -7.2008043    0.4275983 0.00086698762 0.0006229413          226 
   41200   0.49349066   -7.1923257   0.42622819 0.00086211203 0.00062226113          237 
   41300    0.4920179   -7.2181255    0.4293563 0.00086633635 0.0006215951          246 
   41400   0.50561491   -7.1860343   0.42725636 0.00086001682 0.00062096019          254 
   41500   0.48459925   -7.1781022   0.42688432 0.00085719742 0.00062024336          225 
   41600   0.49635201   -7.1998003   0.42923573 0.00085984721 0.0006195983          242 
   41700   0.51624347   -7.2160367   0.43279561 0.00086489929 0.00061900142          214 
   41800   0.50657409   -7.1747872   0.43530965 0.00086784219 0.00061851412          227 
   41900   0.47401399   -7.2051301    0.4412809 0.00087764697 0.00061812734          257 
   42000    0.5022278   -7.2156702   0.44374446 0.00088044534 0.00061792268          216 
   42100   0.54969956   -7.2088878   0.43434366 0.00085974596 0.0006175277          225 
   42200   0.50574503    -7.215216    0.4290199 0.00084719569 0.00061686131          217 
   42300   0.48714055   -7.2474266    0.4307521 0.00084860539 0.00061606131          212 
   42400   0.46209324   -7.2038471   0.43788192 0.00086061698 0.00061547188          231 
   42500    0.5089934   -7.2148321   0.43098403 0.00084506672 0.00061485372          239 
   42600   0.50643589   -7.2172171   0.43167332 0.00084443137  0.000614098          250 
   42700   0.53167596   -7.2133029   0.43839345 0.00085556878 0.00061345449          240 
   42800   0.51051167    -7.233748   0.43958744 0.00085589454 0.00061299359          228 
   42900   0.48867809    -7.204489   0.43614427 0.00084721108 0.00061245484          227 
   43000   0.50102877   -7.2329564   0.43475632  0.000842551 0.00061175618          251 
   43100   0.52509497   -7.1701139   0.44120604 0.00085306658 0.00061114204          250 
   43200    0.4950993   -7.2033561   0.45254029 0.0008729558 0.00061082964          292 
   43300   0.50072315   -7.2078855   0.45426078 0.00087425091 0.00061066883          307 
   43400   0.50515388   -7.1843999   0.45001029 0.00086407505 0.00061049158          299 
   43500   0.50653822   -7.2245901   0.44752137 0.00085732063 0.00061015391          300 
   43600   0.49014108   -7.2121139   0.44917887 0.00085852229 0.00060981064          274 
   43700    0.4825799   -7.1939616    0.4479687 0.00085424999 0.00060944619          272 
   43800   0.50804416   -7.1571945   0.44580253 0.00084817833 0.00060897147          270 
   43900    0.5023978   -7.2024543   0.44236933 0.00083972917 0.00060841672          280 
   44000    0.5080401   -7.1967291   0.44265346 0.00083835881 0.00060779329          264 
   44100   0.48813101   -7.2322379   0.44539466 0.00084163766 0.00060725597          310 
   44200   0.50285491   -7.2052901   0.44398154 0.00083706926 0.00060667936          304 
   44300   0.50449987   -7.2117431    0.4462223 0.00083939484 0.00060615361          313 
   44400   0.48889689   -7.2341608   0.44345084 0.00083230261 0.00060555665          303 
   44500   0.49732697   -7.2194039   0.44654889 0.00083623388 0.00060494979          303 
   44600   0.50119869   -7.2194903   0.45235183 0.00084520146 0.00060446769          267 
   44700   0.49475802   -7.2823049   0.45165115 0.00084200438 0.00060412014          278 
   44800   0.50841373   -7.2208333   0.44871351 0.00083466053 0.00060368559          292 
   44900   0.49269146   -7.2082382   0.44840482 0.00083222868 0.00060310033          276 
   45000   0.52955383   -7.1941506   0.45059688 0.00083443865 0.00060261303          274 
   45100   0.50585503   -7.1996462   0.44949481 0.00083055211 0.00060212329          273 
   45200   0.49551449   -7.2319265   0.44828173 0.0008264781 0.00060150051          272 
   45300   0.54050213   -7.2296566   0.45386183 0.00083491875 0.00060097297          287 
   45400   0.49592068    -7.220947   0.46398697 0.00085166477 0.00060068797          284 
   45500   0.50799067    -7.203786   0.45998457 0.00084246257 0.00060048829          269 
   45600   0.51831662   -7.1915839   0.45268028 0.00082726658 0.00060002509          278 
   45700   0.50599188   -7.2162945   0.44770573 0.00081638535 0.00059947365          258 
   45800   0.49338406   -7.2127201   0.43881026 0.0007984175 0.00059865334          279 
   45900   0.50024007   -7.1969476   0.43962671 0.00079816033 0.00059770677          272 
   46000   0.48798807   -7.1675841   0.44196513 0.00080066145 0.00059682127          282 
   46100    0.4872527   -7.2144039   0.45236199 0.00081771871 0.00059610721          276 
   46200   0.48612228   -7.2040665   0.45613457 0.00082275355 0.00059554047          278 
   46300   0.50047258   -7.2126357    0.4559588 0.00082066018 0.00059504357          278 
   46400   0.48954671   -7.2210022   0.45916359 0.00082464725 0.0005945911          285 
   46500   0.48528499   -7.2158196   0.45393377 0.00081350137 0.00059406626          286 
   46600    0.5177339   -7.2235265   0.46137336 0.00082505965 0.00059357984          269 
   46700    0.5113697   -7.2347676    0.4564462 0.00081450071 0.0005931217          260 
   46800   0.47004062   -7.2195121   0.45194197 0.00080473996 0.00059251621          287 
   46900   0.50130798   -7.2305494   0.44830128 0.00079655522 0.00059173112          258 
   47000   0.53158605   -7.2346498   0.44553794 0.00078996088 0.00059090573          289 
   47100   0.50021795   -7.2608603   0.44799487 0.00079263068 0.0005900976          294 
   47200    0.5329965   -7.2162568   0.44581948 0.00078711065 0.00058926826          303 
   47300   0.51092285   -7.2750699   0.44848411 0.00079014112 0.00058841136          291 
   47400   0.49433275   -7.2269583   0.45244969 0.00079544601 0.00058766061          288 
   47500   0.49566467    -7.208065   0.46011226 0.00080721449 0.00058702892          311 
   47600   0.49611437   -7.1953571    0.4633935 0.00081126313 0.00058655552          280 
   47700   0.48542304   -7.2491342    0.4634784 0.00080971069 0.00058610211          291 
   47800   0.49692897   -7.2000801   0.46659408 0.00081344853 0.00058571275          293 
   47900    0.5020202   -7.1970979   0.46897594 0.00081589411 0.00058530883          286 
   48000   0.48126126   -7.2025874   0.47606692 0.00082650507 0.00058507382          286 
   48100   0.49419033   -7.2025874   0.47034816  0.000814879 0.00058485096          308 
   48200   0.47899486    -7.211396   0.46237215 0.00079939859 0.00058432855          309 
   48300    0.5121389   -7.2518703   0.46243509 0.00079785212 0.00058376016          323 
   48400   0.53344163   -7.2234472     0.469431 0.00080824896 0.0005833071          321 
   48500   0.52172132   -7.2569629   0.46214944 0.0007940712 0.00058284664          321 
   48600   0.50559412   -7.2137693   0.46516271 0.00079760408 0.00058228453          329 
   48700   0.50393739   -7.2003157   0.47294065 0.00080927558 0.00058186471          298 
   48800    0.5219718   -7.1916402   0.48150707 0.00082224568 0.0005816894          310 
   48900   0.51662694   -7.2244779    0.4741741 0.00080806765 0.0005814268          346 
   49000   0.49118403   -7.2312845   0.47224653 0.00080314036 0.00058106223          312 
   49100   0.53189055   -7.2256764   0.47848216 0.00081208785 0.00058079294          296 
   49200   0.51313885   -7.2139378   0.47549174 0.00080537218 0.00058047539          301 
   49300    0.5041812   -7.2488179   0.47443418 0.00080195093 0.00058007256          307 
   49400   0.50675051   -7.2319682   0.46867355 0.00079060989 0.00057961289          292 
   49500   0.49208397    -7.236971   0.47057924 0.00079222093 0.00057913418          315 
   49600   0.48652616   -7.1901911   0.47452853 0.00079725895 0.00057868222          287 
   49700   0.51276566   -7.2003286   0.46775486 0.00078429721 0.00057817906          266 
   49800    0.5059491   -7.2608473   0.46929464 0.00078529892 0.0005775852          258 
   49900   0.51014212   -7.2434046   0.46514337 0.00077679253 0.00057693976          294 
   50000   0.50449291   -7.2335375   0.46907684 0.00078179472 0.00057630396          296 
   50100   0.49111838   -7.1748169   0.47199655 0.00078509072 0.00057576733          316 
   50200   0.50351604    -7.205373   0.47238725 0.00078417538 0.00057526831          331 
   50300   0.50279075   -7.2012135   0.47385651 0.00078505054 0.00057474388          330 
   50400   0.49162029   -7.2255918   0.46517003 0.00076913034 0.00057412097          310 
   50500   0.47942561   -7.1991242   0.47181292 0.00077856917 0.0005734604          314 
   50600   0.49966655   -7.2076011   0.47682137 0.00078527894 0.00057298739          292 
   50700   0.50941375   -7.2009318   0.47536683 0.00078133929 0.00057249444          280 
   50800   0.50835826   -7.2530501   0.47141317 0.00077331556 0.00057195226          282 
   50900   0.49664726   -7.2226351   0.47200219 0.00077276063 0.00057138079          304 
   51000   0.50372175   -7.2103593   0.46884272 0.00076608287 0.0005707676          302 
   51100   0.50810055   -7.2094078   0.46655675 0.00076085575 0.00057003951          294 
   51200   0.50517041   -7.2622242   0.47046021 0.00076572299 0.0005693892          303 
   51300   0.47757185   -7.2184463   0.46436844 0.00075433468 0.00056865926          294 
   51400   0.50387877   -7.2294091   0.45892591 0.0007440433 0.00056780523          302 
   51500   0.48964994   -7.2212128   0.46140846 0.00074661562 0.00056690291          307 
   51600    0.5267788   -7.2211757   0.47248202 0.00076305234 0.00056617061          337 
   51700   0.47488227   -7.2006143   0.48382515   0.00077986 0.00056569193          337 
   51800   0.49937791   -7.2271368   0.49005523 0.00078837713 0.00056538294          305 
   51900   0.51410165   -7.1872225   0.49700027 0.00079800942 0.00056519239          301 
   52000   0.49807541   -7.2119337   0.49263044 0.00078947185 0.00056505351          323 
   52100   0.50022244   -7.2264811   0.49193223 0.00078683977 0.00056484257          321 
   52200   0.51008732   -7.2225555   0.48887049 0.00078044459 0.00056454754          310 
   52300   0.48474053   -7.1726668   0.49445689 0.00078785355 0.00056425785          305 
   52400   0.49537091   -7.2732319   0.49046017 0.0007799939 0.00056399877          317 
   52500   0.49855145   -7.2238265   0.48773526 0.00077418294 0.00056364306          300 
   52600   0.51675245   -7.1981335   0.48985052 0.00077606228 0.00056328963          286 
   52700   0.50316323   -7.2503873   0.48684162 0.00076983178 0.00056286118          308 
   52800   0.49952231    -7.200956   0.48395886 0.00076382395 0.00056242511          332 
   52900   0.51927313   -7.2270798   0.48888653 0.00077014261 0.00056197439          297 
   53000   0.48848032    -7.213507   0.48818822 0.00076759154 0.00056157888          295 
   53100   0.51796331   -7.2432213   0.48823205 0.00076621475 0.00056117158          308 
   53200   0.49078671   -7.2445968   0.48583364 0.0007610176 0.00056072187          303 
   53300    0.4855302   -7.1922374   0.48849325 0.00076374805 0.00056026858          305 
   53400   0.51111848   -7.2180851   0.48607595 0.00075854549 0.00055983233          312 
   53500   0.50419261   -7.2388233   0.48819633 0.00076043041 0.00055936186          322 
   53600   0.49684469   -7.2610677    0.4851578 0.00075428761 0.00055886382          323 
   53700    0.4939019   -7.2058745   0.49071589 0.0007615082 0.00055839137          310 
   53800   0.52605313   -7.2335796   0.48920458 0.00075775182 0.00055798029          305 
   53900   0.48855252   -7.2289643   0.48806361 0.00075458196 0.00055748474          304 
   54000   0.50631355   -7.2314097   0.49322003 0.00076114201 0.00055703657          307 
   54100   0.51331128   -7.1955934   0.49715782 0.0007658007 0.00055666521          282 
   54200   0.48401999   -7.2026301   0.51038152 0.00078471943 0.00055646228          267 
   54300   0.48934621   -7.2433346   0.50663618 0.00077752636 0.00055635029          306 
   54400   0.51962344   -7.2090918   0.50043305 0.00076659475 0.00055614671          280 
   54500   0.50736371   -7.2333218   0.49916176 0.00076324428 0.00055581976          300 
   54600   0.49967252   -7.2229486   0.49939498 0.00076220234 0.0005554716          288 
   54700   0.50015105   -7.2202726   0.49947002 0.00076092324 0.00055514597          287 
   54800   0.50591086    -7.201958   0.50705386 0.00077106729 0.00055488253          266 
   54900   0.48084355   -7.2330457   0.50513036 0.00076674311 0.00055466404          281 
   55000   0.48798998   -7.2139988   0.49555921 0.00075084728 0.00055427899          298 
   55100   0.50265161   -7.2232766    0.4973456 0.00075218632 0.00055384074          306 
   55200   0.49836405   -7.2390602   0.49753127 0.00075110397 0.00055345026          328 
   55300   0.50208283   -7.2735476   0.49471071 0.00074549533 0.00055299839          313 
   55400   0.49614475   -7.2060669   0.49985665 0.00075189026 0.0005525722          284 
   55500    0.4808007   -7.2424558   0.49955801 0.0007500871 0.00055217736          273 
   55600   0.50559157   -7.2459944   0.51039985 0.00076498778 0.0005518665          276 
   55700     0.498248   -7.1994584   0.51729017 0.00077392304 0.00055174189          283 
   55800   0.49553687   -7.2019198   0.51403344 0.00076767239 0.00055161225          266 
   55900    0.4741878    -7.226037   0.50751707 0.00075658477 0.00055136454          254 
   56000   0.48910198   -7.2621469   0.50991577 0.00075880322 0.00055107221          275 
   56100   0.50133089   -7.1996941   0.51346837 0.00076272782 0.00055083284          280 
   56200   0.50245517   -7.2277702   0.51059066 0.00075710359 0.0005505754          282 
   56300   0.51008298   -7.2108748   0.51728576 0.00076566867 0.00055041402          274 
   56400   0.51558882   -7.2745642   0.51051932 0.0007543134 0.00055020668          284 
   56500   0.50335074   -7.2406934   0.50692903 0.00074768293 0.00054987959          274 
   56600    0.5203609   -7.2245087   0.51106993 0.00075245866 0.00054955232          258 
   56700   0.50925708   -7.2308348   0.51271087 0.0007535433 0.00054929549          274 
   56800   0.47802754   -7.2374543   0.50849209 0.00074602712 0.00054897572          300 
   56900   0.52433008   -7.2470192   0.51193676 0.00074976092 0.00054864183          316 
   57000   0.50770627   -7.2375903   0.50422726 0.00073717436 0.00054825025          296 
   57100   0.47576853   -7.2101124   0.50612127 0.00073864749 0.00054778203          280 
   57200   0.49358995   -7.2063197   0.50545333 0.00073638304 0.00054735565          306 
   57300    0.4925149    -7.240594   0.51021229 0.00074201903 0.00054694415          273 
   57400   0.52408785   -7.1907992   0.51001893 0.0007404456 0.00054657781          284 
   57500   0.50352592   -7.2424454   0.51648062 0.00074852263 0.00054626015          314 
   57600   0.50338197   -7.2037409   0.51380617 0.00074335382 0.00054595183          307 
   57700   0.47434169   -7.2029912   0.51851607 0.00074886781 0.00054567879          286 
   57800   0.49984196   -7.2358286   0.50732957  0.000731444 0.00054534866          302 
   57900   0.49666091   -7.2200044   0.49929591 0.00071861816 0.00054476881          295 
   58000   0.50244704   -7.1960402   0.50079831 0.0007195378 0.00054421096          286 
   58100    0.5007279   -7.2283794   0.50782661 0.0007283801 0.00054371583          293 
   58200   0.47413149   -7.2367385   0.50623409 0.00072484835 0.00054324276          294 
   58300   0.44945302    -7.183903   0.50386085 0.00072021277 0.00054270654          290 
   58400   0.48820199   -7.2203085   0.50682309 0.00072320646 0.00054216474          288 
   58500   0.50235697   -7.2121629   0.51365243 0.00073169862 0.00054172368          280 
   58600   0.48658466   -7.2406318   0.51932877 0.00073852213 0.00054144155          261 
   58700   0.46935443   -7.2214459   0.51988125 0.00073804833 0.0005411289          275 
   58800    0.4849745   -7.2063209   0.52023989 0.00073730142 0.00054081228          261 
   58900   0.49239895   -7.2188305    0.5254273 0.00074338893  0.000540539          275 
   59000   0.48062231   -7.2428574   0.52082104 0.00073562293 0.00054025239          269 
   59100   0.48632458    -7.214931   0.52057653 0.00073403345 0.00053994513          258 
   59200   0.49312888   -7.2118217   0.52072485 0.00073300232 0.00053961278          286 
   59300   0.48739396   -7.2659186   0.52868844 0.00074295733 0.00053936198          300 
   59400   0.49080791   -7.2308468   0.53245848 0.00074699561 0.0005392012          249 
   59500   0.49474811   -7.1940616   0.53447964 0.00074857092 0.00053905204          259 
   59600   0.54121923   -7.2438855   0.53156155 0.00074323482 0.00053890348          278 
   59700   0.50002937   -7.2357748    0.5341323 0.00074557831 0.00053873556          266 
   59800   0.50721972   -7.2750799    0.5300817 0.00073868686 0.00053855785          260 
   59900   0.52015702   -7.2330256   0.53395746 0.00074284565 0.00053834669          283 
   60000    0.5117878   -7.2237088   0.53930303 0.00074903197 0.00053821834          286 
   60100   0.49811031   -7.2434525   0.53204198 0.00073771766 0.00053806244          293 
   60200   0.51500104   -7.2391655   0.53956436 0.00074690525 0.00053789212          289 
   60300   0.49145319   -7.2316397   0.53865062 0.00074440383 0.00053781103          279 
   60400   0.49515599   -7.2017135   0.53249855 0.00073468343 0.00053762475          285 
   60500   0.46945917    -7.246577   0.53158373 0.00073220899 0.00053735919          270 
   60600   0.50138252   -7.2071448   0.53194697 0.00073150023 0.00053711958          282 
   60700   0.48647683    -7.227059   0.54609831 0.0007497231 0.00053697754          271 
   60800   0.48713448   -7.2539615   0.55493039 0.00076059538 0.00053704126          267 
   60900    0.4848762   -7.1980927   0.54501625 0.00074578031 0.00053704279          254 
   61000   0.49401597   -7.2077849   0.54213767 0.00074062523 0.00053693658          238 
   61100   0.52467966   -7.2483774   0.53736942 0.00073290973 0.00053676713          242 
   61200   0.49500947   -7.2359123   0.53592232 0.00072974172 0.0005365558          268 
   61300   0.51710748   -7.2306382   0.53610471 0.00072879922 0.00053629285          285 
   61400   0.48631236   -7.2301101   0.53281967 0.00072315373  0.000536029          281 
   61500    0.4692279   -7.2722172   0.53311391 0.00072237657  0.000535682          266 
   61600    0.5068995   -7.2412906   0.53838114 0.00072832946 0.0005354014          295 
   61700   0.48196151   -7.2176449   0.54174247 0.00073168891 0.00053520674          274 
   61800   0.51375119   -7.1912859   0.53833488 0.00072591003 0.00053500612          266 
   61900   0.51691576   -7.2473294   0.53295521 0.00071749489 0.00053468881          275 
   62000   0.49491666   -7.2244366   0.53558457 0.00071987172 0.00053438206          248 
   62100   0.51960001   -7.1966729   0.53917751 0.00072353396 0.00053409887          241 
   62200   0.50219351   -7.2066363   0.53836445 0.00072128141 0.00053384208          234 
   62300   0.48268432   -7.2212297   0.54304489 0.00072638428 0.00053362093          246 
   62400   0.48655099   -7.2628262   0.53322232 0.00071210245 0.00053329475          244 
   62500   0.49094603   -7.1926207   0.53221835 0.00070962447 0.00053293515          256 
   62600   0.48841628   -7.2208214   0.53977237 0.00071854681 0.00053259915          270 
   62700   0.49638138   -7.2404692    0.5347636 0.00071074375 0.00053229273          266 
   62800   0.48232641   -7.2043926   0.53135907 0.0007050943 0.00053190326          260 
   62900   0.50639171   -7.2363723   0.53071312 0.00070311753 0.00053147392          243 
   63000   0.51490263   -7.1866506   0.53713459 0.00071049548 0.00053109051          265 
   63100   0.50557101   -7.2377615   0.53501847 0.00070657484 0.00053074928          277 
   63200   0.47058036   -7.2069343   0.54086646 0.0007131678 0.00053040799          284 
   63300   0.52822742   -7.2541236   0.53157843 0.00069981362 0.00053005181          302 
   63400   0.52380389   -7.2358145    0.5328683 0.00070040522 0.00052962254          254 
   63500    0.4772691    -7.225255   0.54230581 0.00071168741 0.00052926422          271 
   63600   0.49559146   -7.2320581   0.54471455 0.00071372451 0.00052899471          283 
   63700    0.5195472   -7.2269332   0.54015663 0.00070664131 0.00052869185          274 
   63800   0.49638232   -7.2452913   0.53993028 0.00070523808 0.00052836627          283 
   63900   0.51631972   -7.2285826   0.54287576 0.00070797569 0.00052804781          281 
   64000    0.5206928   -7.2621802   0.53890061 0.0007016935 0.00052772025          276 
   64100   0.50179784   -7.2146968   0.53425948 0.00069456511 0.00052733382          291 
   64200   0.48564452   -7.2926899   0.53396536 0.00069310145 0.00052688862          299 
   64300   0.49714902   -7.2003948   0.53623853 0.00069496958 0.00052644473          273 
   64400   0.51996842   -7.2267877   0.53329675 0.00069008379 0.0005260185          274 
   64500   0.51280136   -7.2405376   0.53667894 0.00069338364 0.00052558102          274 
   64600   0.49533208   -7.2289877   0.53175589 0.00068595961 0.00052515659          271 
   64700   0.48445422   -7.2440277   0.52453672 0.00067560113 0.00052456717          271 
   64800   0.50559223   -7.1934465    0.5292474 0.00068061651 0.00052401135          259 
   64900   0.47983886   -7.1979641   0.54134275 0.00069509855 0.00052356286          254 
   65000   0.48766523   -7.2177482   0.53548992 0.00068652554 0.00052314568          301 
   65100   0.47282754   -7.2344344   0.53680251 0.00068715118 0.00052269691          275 
   65200   0.50857012   -7.2201919   0.53361277 0.00068202041 0.00052220435          266 
   65300   0.48833031    -7.198039    0.5405479 0.0006898263 0.00052176632          257 
   65400   0.47772646   -7.2353557   0.53505157 0.00068176805 0.00052135639          263 
   65500   0.48548125   -7.2370502   0.53276874 0.00067782282 0.00052082269          288 
   65600   0.50881432   -7.2356596   0.53627375 0.00068124205 0.00052033309          302 
   65700   0.49722902   -7.2075754   0.54223718 0.00068776913 0.00051989739          285 
   65800   0.50326508   -7.2661551   0.53788683 0.00068121432 0.00051946197          268 
   65900   0.53178205   -7.2058327   0.53361094 0.00067477357 0.00051899856          278 
   66000   0.46936248   -7.2037728    0.5312837 0.00067081275 0.00051844743          289 
   66100   0.50089835   -7.2195637   0.53057054 0.00066889881 0.00051792218          280 
   66200   0.51452851   -7.2049471    0.5268635 0.00066322192 0.00051732495          257 
   66300   0.49804811   -7.1994804   0.53155886 0.00066812324 0.00051675411          274 
   66400    0.4822395   -7.2397208   0.52698175 0.00066137267 0.00051616592          295 
   66500   0.51384642   -7.2297854   0.53470776 0.00067005984 0.00051558796          269 
   66600   0.48230127   -7.2698443   0.54544236 0.00068248543 0.00051515632          295 
   66700   0.50450354   -7.2260904   0.53913074 0.00067357663 0.00051472966          284 
   66800   0.52618883   -7.2188278   0.53609981 0.00066878718 0.00051424204          274 
   66900   0.50997891   -7.2608502   0.53237796 0.00066315141 0.00051369831          250 
   67000   0.49512359   -7.2157517   0.53713837 0.00066808254 0.00051318093          265 
   67100    0.4920938   -7.2674951   0.54393443 0.00067552711 0.00051270009          279 
   67200   0.48462065    -7.233408   0.54708329 0.0006784267 0.00051229949          269 
   67300   0.49051706   -7.2576705   0.54286777 0.00067219882 0.00051190224          265 
   67400   0.47725972   -7.2004775   0.52613773 0.00065051647 0.00051131629          282 
   67500   0.50201565   -7.2208717    0.5284356 0.00065238962 0.00051069778          303 
   67600   0.49176319   -7.2029756   0.53748092 0.00066257509 0.00051010183          301 
   67700   0.47472383   -7.2608432   0.52871671 0.00065080835 0.00050954137          279 
   67800   0.51387778   -7.2392365   0.53080224 0.00065241179 0.00050891943          260 
   67900   0.51071237   -7.2441859   0.53670744 0.00065869838 0.00050835018          280 
   68000   0.51997409    -7.255267    0.5486638 0.00067238211 0.0005078855          276 
   68100   0.46278944    -7.216109   0.54718709 0.00066958773 0.00050749614          239 
   68200   0.51003055   -7.2121076   0.54503217 0.00066597284 0.00050707383          270 
   68300   0.50068077   -7.2331854   0.53623801 0.00065426794 0.00050660882          275 
   68400   0.49301201   -7.2762796    0.5382053 0.00065570821 0.00050605106          268 
   68500   0.52193972   -7.2667938   0.53283561 0.0006482185 0.00050549075          267 
   68600   0.51196368   -7.2330821   0.52849735 0.00064200357 0.0005048901          275 
   68700   0.50705571   -7.2595762   0.52961941 0.00064243014 0.0005042499          279 
   68800   0.48727302   -7.2443876   0.52871052 0.00064039549 0.00050362802          269 
   68900   0.49981278   -7.2300603   0.52440568 0.0006342594 0.00050293826          274 
   69000   0.51615424   -7.2326843   0.53138573 0.0006417702 0.00050229113          246 
   69100    0.5193626   -7.2083199    0.5346561 0.00064478545 0.00050170279          219 
   69200    0.4976546   -7.2333359   0.53495213 0.00064421017 0.0005011021          262 
   69300     0.478277   -7.2241245   0.54045175 0.00064989387 0.00050057941          261 
   69400   0.47565128   -7.2340134   0.54061654 0.0006491553 0.00050007237          262 
   69500   0.49320596   -7.2108461   0.53820575 0.00064533063 0.00049954983          268 
   69600   0.48984725   -7.1997704   0.53928452 0.00064569506 0.00049901311          264 
   69700   0.50455965   -7.2352789   0.52868818 0.00063209969 0.00049839759          266 
   69800   0.50463865   -7.2677193    0.5349409 0.00063865914 0.00049778836          275 
   69900   0.47885834   -7.2544769   0.52584574 0.00062690241 0.00049714268          275 
   70000   0.49146283   -7.2176771   0.52476234 0.00062471707 0.00049642982          259 
   70100   0.48586367   -7.1928101   0.52234671 0.00062095424 0.00049571975          241 
   70200   0.49864519   -7.1995256   0.52194537 0.00061959326 0.00049498148          234 
   70300   0.48177707    -7.253311    0.5272211 0.00062496573 0.00049427431          246 
   70400   0.50022295   -7.2339712   0.52696558 0.00062377554 0.00049358456          262 
   70500   0.53754273    -7.226225   0.53126109 0.00062796819 0.00049293518          267 
   70600   0.49701653   -7.1836798      0.53365 0.00062989848 0.0004923112          276 
   70700   0.51610111   -7.2469611    0.5266493 0.00062075589 0.00049168054          250 
   70800    0.4848947   -7.2401422    0.5267775 0.00062003001 0.00049096447          250 
   70900   0.52076119   -7.2066077   0.53540259 0.00062929313 0.00049032845          256 
   71000   0.50337308   -7.2465984   0.53404417 0.0006268124 0.00048972484          291 
   71100   0.48389471   -7.2249225   0.52718779 0.00061789473 0.00048906597          295 
   71200   0.51217661   -7.2759471   0.52524224 0.00061474981 0.00048836044          293 
   71300   0.51671372   -7.2209588   0.52208626 0.00061019899 0.00048762032          289 
   71400   0.49573812   -7.2185099   0.52573237 0.00061359987 0.00048689712          299 
   71500    0.4919807   -7.2428453   0.53737865 0.00062631544 0.0004862707          296 
   71600   0.49870443   -7.1865276   0.53358696 0.00062102765 0.00048567526          292 
   71700   0.49623916   -7.2550147   0.53252083 0.00061892239 0.00048505199          287 
   71800   0.47843379   -7.2161981   0.54078983 0.00062765764 0.00048443447          298 
   71900   0.50025904   -7.2160494   0.54565899 0.00063242813 0.00048393092          286 
   72000   0.48530368    -7.202072   0.54261927 0.00062803156 0.00048341746          290 
   72100    0.4821751    -7.222562    0.5455783 0.00063058055 0.00048290541          286 
   72200   0.48211375   -7.1837495   0.54720497 0.00063158468 0.00048241567          269 
   72300   0.49482407   -7.2052045   0.53543835 0.00061714886 0.00048188587          295 
   72400   0.48498491   -7.2433927   0.53043771 0.00061054064 0.00048121468          300 
   72500   0.50240443   -7.2216938   0.53840413 0.00061885532 0.00048060464          265 
   72600   0.49630397   -7.1854818   0.54840589 0.00062948334 0.00048009653          268 
   72700   0.49882471   -7.2021768   0.55182207 0.00063253331 0.00047965071          259 
   72800   0.50171919   -7.2400077   0.54348243 0.00062211816 0.00047916491          296 
   72900   0.49352642   -7.2292966   0.53844008 0.00061550077 0.00047862261          287 
   73000   0.51146178   -7.1980405   0.53256821 0.00060795457 0.00047798719          279 
   73100   0.48302537   -7.2123703   0.54186644 0.00061772279 0.00047740396          275 
   73200   0.51329416   -7.2552463   0.54147062 0.0006164283 0.00047687037          289 
   73300   0.51411447   -7.2119285    0.5475318 0.00062247817 0.00047634351          289 
   73400    0.5172618   -7.2110691   0.54974399 0.00062414167 0.00047585469          285 
   73500   0.50187488   -7.2275848   0.54077575 0.00061312443 0.00047532393          283 
   73600   0.49046143   -7.2322885   0.53878127 0.00061003314 0.00047474447          275 
   73700   0.51506889   -7.1928763    0.5346422 0.00060452533 0.00047412643          273 
   73800   0.49148022   -7.2267023   0.54224834 0.00061229487 0.00047354402          276 
   73900   0.51384543   -7.2379133   0.53941167 0.00060826755 0.00047298091          315 
   74000   0.50362141   -7.2426078    0.5438643 0.0006124598 0.00047241751          294 
   74100   0.48292364   -7.2262039   0.54462492 0.00061248866 0.00047190764          305 
   74200   0.49325771   -7.2013834   0.54325722 0.00061012715 0.00047134648          288 
   74300   0.50848033   -7.2334669   0.54407418 0.00061022227 0.0004708126          290 
   74400   0.47894641   -7.2256764   0.54201109 0.00060709127 0.00047025815          304 
   74500    0.5048533    -7.215937   0.54754754 0.00061246928 0.00046971959          310 
   74600   0.49755374   -7.1773915   0.55606628 0.0006211643 0.00046926503          305 
   74700    0.5071383   -7.2098292   0.55265759 0.00061653011 0.00046882013          265 
   74800   0.50522367   -7.2492674   0.55817176 0.00062184911 0.00046839197          305 
   74900   0.49091593   -7.2521059   0.55396493 0.00061633837 0.00046797035          291 
   75000   0.51748558   -7.2178265   0.55698282 0.0006188698 0.00046752247          296 
   75100   0.50977106   -7.2274757    0.5582843 0.0006194899 0.00046712423          288 
   75200   0.48520936   -7.2124848   0.55334099 0.00061318815 0.00046666357          300 
   75300   0.49732234   -7.2395324   0.55701509 0.0006164399 0.00046622562          320 
   75400   0.51356769   -7.2210597    0.5608879 0.00061990263 0.00046581437          309 
   75500   0.49552821   -7.2200294   0.55485756 0.00061242556 0.00046538266          334 
   75600   0.48629265   -7.2242515    0.5617181 0.0006191778 0.00046497716          329 
   75700   0.50298888   -7.2365447   0.56019294 0.00061668091 0.00046456807          321 
   75800   0.50582987   -7.2262791   0.56342206 0.00061941739 0.00046418443          298 
   75900   0.48285022   -7.2673171   0.56819259 0.00062383902 0.00046381022          313 
   76000   0.49151647   -7.2012546   0.57466482 0.00063011493 0.0004635005          338 
   76100   0.52095774   -7.2418814   0.56847577 0.0006225096 0.00046320076          317 
   76200   0.47459003     -7.21922   0.56597825 0.00061896134 0.00046285065          316 
   76300    0.5102787   -7.2062011   0.57219579 0.00062494079 0.00046251371          325 
   76400   0.50534265   -7.2272708   0.57343651 0.00062547612 0.0004622381          309 
   76500   0.49711548   -7.2347266   0.56635353 0.00061694284 0.00046189219          327 
   76600   0.49900984   -7.2579097   0.56305194 0.00061254563 0.00046151148          338 
   76700   0.51823014   -7.1851333    0.5511414 0.00059880639 0.00046104225          315 
   76800   0.49520895   -7.2407146   0.55464158 0.00060182462 0.00046054315          310 
   76900   0.49742018   -7.2244317    0.5551892 0.00060163545 0.00046004592          291 
[...]
   83300   0.51195679   -7.2555382   0.61478318 0.00061502919 0.00044499177          308 
   83400   0.52597731    -7.266064    0.6116265 0.00061113758 0.00044485841          336 
   83500   0.50999983   -7.2128034    0.6007994 0.00059960019 0.00044466084          300 
   83600    0.5302496   -7.2468868   0.58951079 0.00058763037 0.00044435387          305 
   83700   0.50437661   -7.2475317   0.60040831 0.00059777809 0.00044403987          329 
   83800   0.49775274   -7.2486686   0.60264843 0.00059929238 0.00044380245          301 
   83900   0.51540277   -7.1878116   0.60483623 0.00060075112 0.0004435753          287 
   84000   0.50056175   -7.2426052   0.61506425 0.00061018279 0.00044338114          322 
   84100   0.51055005   -7.2363929   0.61103883 0.00060546851 0.0004432098          323 
   84200   0.52386033    -7.225283   0.61796394 0.00061160327 0.00044303769          310 
   84300   0.50076184   -7.2325859   0.62028453 0.00061317173 0.0004429247          312 
   84400   0.50541271   -7.2425073   0.61545541 0.00060767714 0.00044277971          304 
   84500   0.48967142   -7.2419165   0.61358812 0.00060511649 0.0004426114          299 
   84600   0.51551797   -7.2203966   0.61359814 0.00060441109 0.0004424313          307 
   84700   0.52572886   -7.2197089   0.62188592 0.00061185155 0.00044229876          314 
   84800    0.4999583   -7.2290579   0.62004477 0.00060932073 0.00044216103          299 
   84900   0.48596977   -7.2360574   0.61466785 0.00060332533 0.00044202031          304 
   85000   0.48647494    -7.218056   0.60385591 0.00059201559 0.00044179589          305 
   85100   0.48285171   -7.2201399   0.60177471 0.00058928193 0.00044152718          336 
   85200   0.52716656   -7.2259116   0.59497352 0.0005819381 0.0004412131          349 
   85300   0.52035265   -7.2433715   0.60265353 0.00058875881 0.00044091693          307 
   85400   0.50522905   -7.2496082   0.60254587 0.00058796435 0.00044064246          301 
   85500    0.5067313   -7.2546601   0.60164849 0.00058640203 0.00044037672          301 
   85600   0.50382514   -7.2339965   0.60703557 0.00059096142 0.00044011113          291 
   85700   0.50081805   -7.2334546   0.60520424 0.00058849109 0.00043985526          297 
   85800   0.48382803   -7.2466033   0.60973897 0.00059220956 0.0004396013          300 
   85900   0.50215692   -7.2331811   0.61388009 0.00059553753 0.00043937587          298 
   86000   0.47781271   -7.1861823   0.61499612 0.00059592647 0.00043918895          281 
   86100   0.51770874   -7.2437682   0.60859423 0.00058903816 0.00043895504          326 
   86200   0.50274779   -7.2469355   0.61110951 0.00059078645 0.0004387179          303 
   86300   0.50603507   -7.2341724   0.61206574 0.00059102523 0.00043848286          288 
   86400   0.49970307   -7.2174342   0.61124866 0.0005895531 0.00043824922          299 
   86500   0.46091712   -7.2148035   0.60455851 0.0005824263 0.00043796216          311 
   86600   0.50587018   -7.1959629   0.60920846 0.0005862283 0.00043768487          332 
   86700   0.49078748   -7.2249457   0.60832385 0.00058470189 0.00043742356          285 
   86800   0.50729329   -7.2548788   0.60779971 0.00058352507 0.00043716946          296 
   86900   0.49318604   -7.2329496   0.60502741 0.00058019506 0.00043688464          311 
   87000   0.49802576   -7.2830065    0.6031332 0.00057771379 0.00043658581          308 
   87100   0.50213986   -7.2383488   0.60156966 0.00057555459 0.00043627357          306 
   87200     0.516103   -7.2221042   0.60363071 0.00057686421 0.00043595251          317 
   87300   0.48799886   -7.2318045   0.61034521 0.00058261284 0.00043566767          317 
   87400   0.49865866   -7.2052529   0.61792968 0.0005891778 0.00043542685          301 
   87500    0.5364836   -7.2252367   0.61567772 0.00058635973 0.00043522723          289 
   87600   0.50937549   -7.2342732   0.61245551 0.0005826251 0.00043497881          323 
   87700   0.49726426   -7.2444345   0.61078958 0.00058037778 0.00043471517          307 
   87800   0.46832889   -7.2689867   0.60352307 0.00057281992 0.00043442434          313 
   87900     0.506372   -7.2118314   0.60603706 0.00057455163 0.00043411147          293 
   88000   0.50161509   -7.2522419   0.60094551 0.00056907718 0.00043380193          298 
   88100   0.49380275   -7.2001748   0.60051607 0.00056802504 0.00043345445          307 
   88200   0.49891687   -7.2007457    0.6082677 0.00057470493 0.00043314381          300 
   88300   0.50748789   -7.2401142   0.60947654 0.00057519492 0.00043286912          332 
   88400   0.49221111   -7.2548587   0.60116857 0.00056671245 0.00043254537          329 
   88500   0.50081127   -7.2041214    0.6061606 0.00057077269 0.00043222864          304 
   88600   0.49407446   -7.2332727   0.60202654 0.00056624016 0.00043189101          293 
   88700   0.47465787   -7.2464493   0.59565854 0.00055961907 0.00043153079          312 
   88800    0.5067848   -7.2149917   0.59583637 0.00055915575 0.00043114236          308 
   88900   0.49501381   -7.2516314   0.60003833 0.00056246562 0.00043078719          327 
   89000   0.47374108   -7.2443567   0.60781126 0.00056911166 0.00043044636          302 
   89100   0.49455787   -7.2623412   0.61925164 0.00057917288 0.00043017947          325 
   89200   0.49851989    -7.240816   0.61539421 0.00057491985 0.0004299319          321 
   89300   0.49849042   -7.2797606   0.60553792 0.00056507831 0.00042964238          342 
   89400   0.50138736   -7.2276216   0.60512995 0.00056406594 0.00042929185          337 
   89500   0.52908028   -7.2324263   0.60605999 0.00056430166 0.00042896455          303 
   89600   0.50003103   -7.2224402   0.61383522 0.00057090329 0.00042867294          325 
   89700   0.48793069   -7.2260096   0.60911234 0.00056587917 0.00042839879          326 
   89800   0.49202888   -7.2506357   0.60627249 0.00056261366 0.00042807506          319 
   89900   0.51081099    -7.224209   0.61187935 0.00056718516 0.00042776106          336 
   90000   0.48739464   -7.2259444   0.61169688  0.000566386 0.00042747507          320 
   90100   0.53182627   -7.2342114   0.60936956 0.00056360485 0.00042717343          323 
   90200   0.50315185   -7.2443607   0.60768596 0.00056142457 0.00042685103          323 
   90300   0.48258011    -7.223512   0.59687563 0.00055082653 0.00042648217          325 
   90400   0.49941882    -7.233169   0.59717161 0.00055049005 0.00042609101          294 
   90500   0.52315045   -7.2059966   0.59904701 0.00055160866 0.00042569469          277 
   90600   0.52337786   -7.2505507   0.60353232 0.00055512538 0.00042533828          276 
   90700     0.499959   -7.2365841   0.60404387 0.00055498334 0.00042498087          313 
   90800   0.48465508   -7.2491004    0.6105216 0.00056031718 0.00042465614          312 
   90900   0.49708902   -7.2153645   0.61278696 0.00056177756 0.00042434694          298 
   91000   0.48901526   -7.2401657   0.61808521 0.0005660121 0.00042407555          313 
   91100   0.50903335   -7.2616778   0.60136122 0.00055009259 0.00042374329          342 
   91200    0.5006194   -7.2380648   0.60354407 0.00055148398 0.00042337852          320 
   91300   0.52496623   -7.2369082   0.59642532 0.00054438236 0.00042299751          313 
   91400   0.49467924   -7.2609738   0.60926118 0.00055548977 0.00042262503          315 
   91500   0.49687521   -7.2364675   0.61270292 0.00055801723 0.00042230177          308 
   91600   0.51619696   -7.2215293   0.62068129 0.00056466638 0.00042203132          299 
   91700   0.53521653   -7.2354289   0.61521942 0.00055908708 0.00042175278          308 
   91800   0.49377085   -7.2051331   0.61772288 0.00056075061 0.00042147266          289 
   91900   0.49925539   -7.2829733   0.62174617 0.00056378869 0.00042121275          294 
   92000   0.52173439   -7.2359638   0.62043441 0.00056198769 0.00042096509          308 
   92100    0.5128406   -7.2595842   0.61333351 0.0005549525 0.00042068214          302 
   92200   0.48652144   -7.2452666   0.59678661 0.00053939498 0.00042032384          316 
   92300   0.49739487   -7.2471877   0.59288162 0.00053528496 0.00041988435          305 
   92400    0.5102198   -7.2422725   0.60212739 0.00054304418 0.00041946946          310 
   92500   0.49208172   -7.2624763   0.61272229 0.00055200206 0.00041912164          332 
   92600    0.5220084   -7.2408408   0.61463579 0.00055312796 0.00041882505          302 
   92700   0.47778099    -7.241192    0.6083325 0.00054686488 0.00041849394          252 
   92800   0.49029225   -7.2472526   0.61327218 0.00055071137 0.00041816519          297 
   92900   0.45664809   -7.2105653    0.6109331 0.00054802036 0.00041784101          304 
   93000   0.50783568   -7.2339251   0.60997504 0.00054657262 0.00041749046          302 
   93100   0.51268523   -7.2307166   0.60969008 0.00054573047 0.00041716229          332 
   93200   0.49040581   -7.2382094   0.61292908 0.00054804102 0.00041683721          337 
   93300    0.5147826   -7.2608724    0.6102337 0.00054504617 0.00041652197          329 
   93400   0.48039864   -7.2430775   0.60620706 0.00054086997 0.00041616011          314 
   93500   0.48749682   -7.1939469    0.6137931 0.00054705267 0.00041581695          320 
   93600   0.49873872   -7.2152401   0.61872001 0.0005508547 0.00041552621          329 
   93700   0.50041907   -7.2173201   0.61282327 0.00054502247 0.00041521018          319 
   93800   0.50649366   -7.2384087   0.61609526 0.00054734831 0.00041489874          304 
   93900   0.48183607   -7.2713825   0.61545668 0.00054619869 0.00041460303          274 
   94000   0.49795019   -7.2685273   0.61065602 0.00054136172 0.0004142638          316 
   94100   0.51476585   -7.2512117   0.61224519 0.00054219375 0.00041392381          306 
   94200   0.51385907   -7.2575002   0.62052144 0.0005489397 0.00041361938          310 
   94300   0.48416333   -7.2376977   0.62117693 0.00054893684 0.00041334783          317 
   94400   0.51864677    -7.269477   0.61770239 0.00054528812 0.00041306395          299 
   94500   0.51213207   -7.2099413   0.61465511 0.00054202391 0.00041275457          303 
   94600   0.49085974   -7.2681064   0.61357908 0.00054050307 0.00041242211          324 
   94700    0.5108749    -7.252892   0.61065909 0.0005373628 0.00041208616          333 
   94800   0.50716954   -7.2821549   0.61319112 0.00053902173 0.00041174151          321 
   94900   0.49233412   -7.2733937   0.61603072 0.00054094724 0.00041141626          319 
   95000   0.50270777   -7.2252048   0.61562154 0.00054001889 0.00041109686          345 
   95100   0.51355143   -7.2269952     0.612704 0.00053689449 0.00041078618          316 
   95200    0.4850079    -7.256196   0.60662045 0.00053100529 0.00041041704          329 
   95300    0.4896905   -7.2476562   0.61268989 0.00053575541 0.0004100578          304 
   95400    0.5127367   -7.2166378   0.61536214 0.00053752807 0.00040973088          300 
   95500   0.50090613   -7.2289945   0.61885408 0.00054001228 0.00040943137          295 
   95600    0.4794463   -7.2330904   0.62672493 0.00054630834 0.00040915021          299 
   95700   0.50585111   -7.2553585   0.62310765 0.00054258764 0.00040888729          332 
   95800   0.51636223   -7.2518135   0.61705324 0.00053675473 0.00040858276          325 
   95900   0.48564595   -7.2301192   0.61473037 0.00053417655 0.00040825335          306 
   96000   0.49318202   -7.2138477    0.6138353 0.00053284314 0.00040791559          305 
   96100   0.49188486   -7.2213877   0.60557153 0.00052512272 0.00040755117          311 
   96200   0.49091831   -7.2597325   0.60587578 0.00052484041 0.00040715823          310 
   96300   0.48333673    -7.241076   0.61588763 0.00053295918 0.00040679498          314 
   96400   0.50635195   -7.2709888   0.62332852 0.00053883862 0.00040649519          298 
   96500   0.51530822   -7.2302779   0.62585553 0.00054046246 0.00040622214          335 
   96600   0.49012295   -7.2639368   0.62340704 0.00053779075 0.0004059389          323 
   96700   0.47779554   -7.2380221   0.62710583 0.00054042212 0.00040566857          333 
   96800   0.50217711   -7.2581961   0.62404234 0.00053722653 0.00040539034          331 
   96900   0.51980257   -7.2517562   0.61669794 0.00053035598 0.00040508984          300 
   97000   0.50845092   -7.2472563   0.61339266 0.00052696964 0.00040473828          314 
   97100   0.50176559   -7.2642719   0.61278601 0.00052590629 0.00040440322          326 
   97200   0.52514696   -7.2498154    0.6092975 0.0005223744 0.00040402902          295 
   97300   0.49896149   -7.2292651   0.61877824 0.00052995738 0.00040368838          300 
   97400   0.50797178   -7.2496155   0.61366529 0.00052503875 0.00040335904          315 
   97500   0.48234922   -7.2362059   0.61481301 0.00052548121 0.00040300724          324 
   97600   0.49756703   -7.2631461    0.6194305 0.00052888533 0.00040267849          314 
   97700     0.498463   -7.2063957   0.62947925 0.00053691508 0.00040238018          328 
   97800   0.47733333   -7.2423714   0.63048952 0.00053722693 0.0004021336          319 
   97900   0.49530518   -7.2408678   0.62229592 0.00052970371 0.00040184224          325 
   98000    0.4934397   -7.2251304   0.64342077 0.0005471265 0.0004015996          316 
   98100    0.5169497    -7.239451   0.63581179 0.00054010515 0.00040139934          301 
   98200   0.49495077   -7.2508531   0.63406208 0.00053807033 0.00040115356          344 
   98300   0.50700934   -7.2272488    0.6329111 0.00053654722 0.00040090372          308 
   98400   0.51293475   -7.2171191   0.63109673 0.00053446538 0.00040064175          341 
   98500   0.48745273   -7.2412481    0.6362643 0.00053829466 0.00040039798          315 
   98600   0.49113739    -7.225776   0.63691416 0.00053829797 0.00040017993          290 
   98700   0.50436876   -7.2424344   0.62371363 0.00052660725 0.00039990767          310 
   98800   0.49359249   -7.2548945   0.62157739 0.00052427242 0.00039959075          340 
   98900    0.4976479   -7.2517471   0.62367584 0.00052551048 0.00039927704          334 
   99000   0.49825856   -7.2075087   0.62920115 0.0005296306 0.00039899771          301 
   99100   0.49887578   -7.2095224   0.62290747 0.00052380379 0.0003986956          307 
   99200   0.47515915   -7.2518811   0.62969218 0.00052897528 0.00039842229          308 
   99300   0.50436913   -7.2604048   0.62831889 0.0005272901 0.00039813965          304 
   99400   0.50294372   -7.2464112   0.62668505 0.00052538988 0.00039784901          350 
   99500   0.49561763   -7.2072296   0.61915968 0.0005185592 0.00039754086          311 
   99600   0.49172008   -7.2343842   0.62320566 0.00052142374 0.00039720685          311 
   99700   0.51030155   -7.2553191   0.62574385 0.00052302227 0.00039690691          335 
   99800   0.49415427   -7.2785644   0.62073047 0.00051831201 0.00039659109          341 
   99900   0.50568974   -7.2761717   0.62933751 0.0005249729 0.00039629898          326 
  100000   0.51485754   -7.2079961   0.62728103 0.00052273419 0.00039600937          307 
  100100    0.4885669   -7.2265474   0.63290172 0.00052689121 0.00039574287          315 
  100200     0.481394   -7.2485516   0.62909009 0.00052319535 0.00039545474          346 
  100300   0.51257838   -7.2695641   0.62609388 0.00052018434 0.00039516419          356 
  100400    0.5306407   -7.2449467   0.62925696 0.00052229163 0.00039487855          324 
  100500   0.50818158   -7.2423934   0.63008473 0.00052245832 0.00039459446          353 
  100600   0.49602965   -7.2665056   0.63549519 0.0005264208 0.00039432046          329 
  100700   0.48647167   -7.1917567   0.62054903 0.00051352948 0.00039403047          340 
  100800   0.50446984   -7.2418412   0.61282283 0.00050663263 0.00039367402          350 
  100900   0.49259951    -7.226831     0.622227 0.00051389742 0.00039332465          345 
  101000   0.49936301    -7.233476   0.62408335 0.00051492025 0.00039301352          324 
  101100     0.516939   -7.2167302   0.61436824 0.0005064031 0.00039266272          331 
  101200   0.50513321   -7.2845255   0.61964382 0.00051024688 0.00039230675          320 
  101300   0.51045344   -7.2646533   0.61652335 0.00050717616 0.00039195774          339 
  101400    0.5148057   -7.2275428   0.61467461 0.00050515665 0.00039158548          314 
  101500    0.4830836   -7.2275625   0.62078967 0.00050967953 0.0003912258          332 
  101600   0.49364423   -7.2222024   0.62365831 0.00051153076 0.00039090177          338 
  101700   0.50734162   -7.2685797     0.615567 0.00050439774 0.00039055822          367 
  101800   0.51227551   -7.2890183    0.6108242 0.00050001981 0.00039017363          359 
  101900    0.5138989   -7.2292048    0.6100091 0.00049886253 0.00038978659          375 
  102000   0.50395591   -7.2088201   0.61987201 0.00050643138 0.00038942345          359 
  102100   0.47859368   -7.2603917   0.62378984 0.00050913307 0.00038909063          373 
  102200   0.50468358   -7.2676443    0.6240198 0.0005088224 0.00038877175          372 
  102300   0.50037679   -7.2228405    0.6273513 0.00051103885 0.0003884583          362 
  102400   0.49262499   -7.2040381    0.6301333 0.00051280379 0.0003881583          354 
  102500   0.50409577   -7.2459249    0.6287534 0.00051118162 0.00038786234          365 
  102600    0.4764352   -7.2864832   0.62575247 0.00050824599 0.00038755063          350 
  102700   0.49408641   -7.2285681   0.62347657 0.00050590439 0.00038722832          348 
  102800   0.49347568    -7.233051   0.63204631 0.0005123592 0.00038693171          345 
  102900    0.4961568   -7.2390822   0.62799201 0.00050857791 0.00038663139          346 
  103000   0.51984272   -7.2412054   0.62642483 0.0005068162 0.00038631604          346 
  103100   0.47721343   -7.2594185   0.63277928 0.00051146078 0.00038602222          342 
  103200   0.51565524    -7.242685   0.62602566 0.00050551167 0.00038571832          344 
  103300   0.51242885   -7.2574801   0.62492235 0.00050413226 0.00038540765          366 
  103400    0.4922594    -7.239366    0.6270722 0.00050537734 0.00038507985          332 
  103500   0.52161712   -7.2626703   0.63092681 0.00050799259 0.00038478172          346 
  103600   0.53415381      -7.2401   0.63612611 0.00051168445 0.00038450056          369 
  103700   0.49477437   -7.2156445   0.63158982 0.00050754566 0.00038421255          357 
  103800   0.49348187   -7.2476227   0.62144124 0.00049890915 0.00038389182          352 
  103900   0.52379548   -7.2210035   0.62525283 0.00050148606 0.00038355477          380 
  104000   0.49683558   -7.2212033   0.62192325 0.00049833594 0.00038322435          379 
Loop time of 207.709 on 12 procs for 100000 steps with 864 atoms

Performance: 83193.484 tau/day, 481.444 timesteps/s
99.0% CPU use with 12 MPI tasks x no OpenMP threads

MPI task timing breakdown:
Section |  min time  |  avg time  |  max time  |%varavg| %total
---------------------------------------------------------------
Pair    | 10.278     | 11.05      | 11.775     |  14.7 |  5.32
Neigh   | 0.86825    | 0.89637    | 0.92533    |   1.7 |  0.43
Comm    | 8.0044     | 8.7226     | 9.452      |  16.9 |  4.20
Output  | 13.418     | 13.419     | 13.427     |   0.1 |  6.46
Modify  | 170.6      | 171.15     | 171.6      |   2.1 | 82.40
Other   |            | 2.47       |            |       |  1.19

Nlocal:        72.0000 ave          75 max          66 min
Histogram: 1 0 0 0 0 4 3 1 0 3
Nghost:        1627.67 ave        1637 max        1621 min
Histogram: 3 0 1 3 0 2 0 2 0 1
Neighs:        8776.58 ave        9812 max        8042 min
Histogram: 3 0 2 1 2 1 0 1 0 2
FullNghs:      17554.2 ave       18371 max       16124 min
Histogram: 1 0 0 0 1 3 3 1 0 3

Total # of neighbors = 210651
Ave neighs/atom = 243.80903
Neighbor list builds = 3877
Dangerous builds = 0

#clear
#
#next RN
#
#jump SELF



Total wall time: 0:03:28
