
units lj                  # Use reduced LJ style units
atom_style atomic         # Uncharged point particles
atom_modify map hash      # Needed for indexing of clusters etc
                          # Used to be able to find where atoms are in relation to each other.

# Define a lattice with which to populate the simulation cell. With units
# set to 'lj' the second argument to the lattice command is the reduced
# density rho* and the spacings are multiples of that required to acheive
# that density. Also define a simulation cell called 'box' in lattice units
# and fill it with atoms. Here we're creating a box which is ten lattice
# constants in each direction.
lattice fcc 1.0 spacing 1 1 1                 # All equal sizes - gives the right reduced density.
Lattice spacing in x,y,z = 1.5874011 1.5874011 1.5874011

region box block 0 6 0 6 0 6 units lattice # Defines a region, "box", in lattice units
create_box 1 box                              # Creates a simulation box as specified above,
Created orthogonal box = (0.0000000 0.0000000 0.0000000) to (9.5244063 9.5244063 9.5244063)
  2 by 2 by 3 MPI processor grid
                                              # with one type of atom
create_atoms 1 box                            # Creates particles on lattice points
Created 864 atoms
  using lattice units in orthogonal box = (0.0000000 0.0000000 0.0000000) to (9.5244063 9.5244063 9.5244063)
  create_atoms CPU = 0.001 seconds


# Set the mass of the first (and only) atom type.
mass 1 1.0

# Lennard-Jones interactions between particles, 3.5 sigma cut-off. Apply
# long range tail corrections to energy and pressure and set all coefficients
# to unity since we work in reduced units here. Note that this doesn't shift
# the potential such that it goes to zero at the cutoff. That would require
# pair_modify('shift', 'yes').
pair_style lj/cut  3.5      # non-GPU version
pair_modify tail  yes
pair_coeff 1  1  1.0  1.0   # Intearaction between 1 and 1 set with epsilon = 1 and sigma = 1

write_data data.*
System init for write_data ...
Neighbor list info ...
  update every 1 steps, delay 10 steps, check yes
  max neighbors/atom: 2000, page size: 100000
  master list distance cutoff = 3.8
  ghost atom cutoff = 3.8
  binsize = 1.9, bins = 6 6 6
  1 neighbor lists, perpetual/occasional/extra = 1 0 0
  (1) pair lj/cut, perpetual
      attributes: half, newton on
      pair build: half/bin/atomonly/newton
      stencil: half/bin/3d
      bin: standard

#############################
#   M E L T   S Y S T E M   #
#############################

velocity all create 2.4 2750902 mom yes dist gaussian # Assign velocities
                                                    # Temperature 2.4, random number seed, zero linear momentum
						                                                        # Gaussian distribution

timestep 0.002   # simulation timestep
thermo 100       # output thermodynamic data every 100 steps

# Define a fix  in this case with index 1 applied to all
# particles in the simulation. This fix is for simulations
# in the anisotropic NPT ensemble. Note that we use the MTK
# correction.
fix 1 all npt temp 2.4 2.4 0.1 iso 5.68 5.68 0.5 mtk yes tchain 5 pchain 5 # Use NPT ensemble
                                                                         # Set temperature and pressure and damping
                                                                         # Numbers of thermostats in chain and in barostat
run 1000         # run for 10000 steps
Per MPI rank memory allocation (min/avg/max) = 3.633 | 3.633 | 3.634 Mbytes
Step Temp E_pair E_mol TotEng Press Volume 
       0          2.4   -8.3859253            0    -4.790092     -2.24275          864 
     100    1.3007594   -6.4407842            0   -4.4919034    5.3582762    891.69205 
     200    1.5828213   -6.0796178            0   -3.7081338    6.4338598    907.46239 
     300    1.7629056     -5.73851            0   -3.0972122    5.5953229    954.02439 
     400    1.8733232   -5.2785237            0   -2.4717912    6.0585808    994.36537 
     500      2.02574   -4.9360708            0   -1.9009777    5.7478153    1042.8978 
     600    2.2112838   -4.6895875            0   -1.3765009    5.7138268    1079.0368 
     700    2.3146746   -4.4629638            0  -0.99497044    5.6088298    1118.0222 
     800    2.4734008     -4.39503            0   -0.6892229    5.7937797    1123.7282 
     900    2.4206618   -4.2767239            0  -0.64993368    5.5531987    1146.9555 
    1000    2.3618098   -4.2459295            0  -0.70731524    5.7000582    1143.3852 
Loop time of 0.203004 on 12 procs for 1000 steps with 864 atoms

Performance: 851213.513 tau/day, 4926.004 timesteps/s
99.8% CPU use with 12 MPI tasks x no OpenMP threads

MPI task timing breakdown:
Section |  min time  |  avg time  |  max time  |%varavg| %total
---------------------------------------------------------------
Pair    | 0.066349   | 0.081677   | 0.10662    |   4.9 | 40.23
Neigh   | 0.011792   | 0.013434   | 0.015861   |   1.4 |  6.62
Comm    | 0.061528   | 0.08895    | 0.10555    |   5.3 | 43.82
Output  | 0.00020824 | 0.00021771 | 0.0002552  |   0.0 |  0.11
Modify  | 0.016399   | 0.017012   | 0.017404   |   0.2 |  8.38
Other   |            | 0.001713   |            |       |  0.84

Nlocal:        72.0000 ave          80 max          66 min
Histogram: 2 1 2 2 1 0 2 0 0 2
Nghost:        1314.75 ave        1327 max        1295 min
Histogram: 1 0 0 2 3 0 0 1 2 3
Neighs:        6211.67 ave        7136 max        5326 min
Histogram: 2 0 0 2 1 4 1 0 0 2

Total # of neighbors = 74540
Ave neighs/atom = 86.273148
Neighbor list builds = 80
Dangerous builds = 2

# Equilibrate just above the melting temperature to avoid step fn in T

fix 1 all npt temp 1.25 1.25 0.1 iso 5.68 5.68 0.5 mtk yes tchain 5 pchain 5
run 1000
Per MPI rank memory allocation (min/avg/max) = 3.634 | 3.634 | 3.634 Mbytes
Step Temp E_pair E_mol TotEng Press Volume 
    1000    2.3618098   -4.2459295            0  -0.70731524    5.7000582    1143.3852 
    1100    1.8617945   -4.5967525            0    -1.807293    5.9593679    1083.5566 
    1200      1.66126   -5.0091582            0   -2.5201524    5.9308167    1028.0056 
    1300    1.4533368   -5.3154554            0   -3.1379734    5.5185254    997.93023 
    1400    1.3100587   -5.5224566            0    -3.559643    5.2858775     978.0358 
    1500    1.3306301   -5.7450087            0   -3.7513736    5.2687861    956.68836 
    1600    1.2302857    -5.777427            0   -3.9341343     5.385203    950.58576 
    1700    1.2545134   -5.8251615            0   -3.9455694    5.6370291    940.07281 
    1800    1.2669685   -5.8434457            0   -3.9451925    6.1076728    931.13358 
    1900    1.2975362   -5.8185374            0   -3.8744858    5.5765884    942.23221 
    2000    1.2225624   -5.8503078            0   -4.0185867    5.1330896    948.19804 
Loop time of 0.172249 on 12 procs for 1000 steps with 864 atoms

Performance: 1003201.160 tau/day, 5805.562 timesteps/s
99.8% CPU use with 12 MPI tasks x no OpenMP threads

MPI task timing breakdown:
Section |  min time  |  avg time  |  max time  |%varavg| %total
---------------------------------------------------------------
Pair    | 0.070172   | 0.077789   | 0.084942   |   1.9 | 45.16
Neigh   | 0.0098362  | 0.010644   | 0.01137    |   0.5 |  6.18
Comm    | 0.058484   | 0.066099   | 0.074129   |   2.3 | 38.37
Output  | 0.00019667 | 0.00020508 | 0.00024336 |   0.0 |  0.12
Modify  | 0.01513    | 0.015511   | 0.015889   |   0.2 |  9.01
Other   |            | 0.002001   |            |       |  1.16

Nlocal:        72.0000 ave          79 max          65 min
Histogram: 1 1 0 4 0 1 1 3 0 1
Nghost:        1466.08 ave        1476 max        1447 min
Histogram: 1 1 0 0 2 0 0 4 1 3
Neighs:        7466.67 ave        8131 max        6694 min
Histogram: 1 0 2 0 3 1 3 0 0 2

Total # of neighbors = 89600
Ave neighs/atom = 103.70370
Neighbor list builds = 67
Dangerous builds = 0


# Small amount of linear quench

fix 1 all npt temp 1.25 ${temp} 0.1 iso 5.68 5.68 0.5 mtk yes tchain 5 pchain 5
fix 1 all npt temp 1.25 0.77 0.1 iso 5.68 5.68 0.5 mtk yes tchain 5 pchain 5
run 2000
Per MPI rank memory allocation (min/avg/max) = 3.634 | 3.634 | 3.634 Mbytes
Step Temp E_pair E_mol TotEng Press Volume 
    2000    1.2225624   -5.8503078            0   -4.0185867    5.1330896    948.19804 
    2100    1.2462233   -5.8651511            0   -3.9979796     5.405684    941.19862 
    2200    1.2198113    -5.912472            0   -4.0848728    5.7811226    929.20453 
    2300    1.1721071   -5.9286007            0   -4.1724749    6.3046125    918.36769 
    2400    1.1703602   -5.9905767            0   -4.2370683    5.9108653    919.62429 
    2500    1.1086475   -6.0001003            0   -4.3390537    5.8140951    918.38636 
    2600    1.1025057   -6.0582566            0   -4.4064121    5.5458709    918.20851 
    2700    1.0940446   -6.0798552            0   -4.4406877    5.5935406    915.92346 
    2800    1.0779967   -6.1508321            0   -4.5357085    5.4302094    912.99714 
    2900    1.0657486   -6.1769507            0    -4.580178    5.5931578    907.69946 
    3000    1.0380097   -6.1881015            0    -4.632889    5.6484802    904.72874 
    3100    1.0001267   -6.2365305            0   -4.7380767    5.4421186    903.91565 
    3200   0.93872935   -6.2424806            0   -4.8360163    5.3824792    902.90482 
    3300   0.94446391   -6.2771602            0    -4.862104    5.8487312    893.01891 
    3400   0.96643566   -6.3572252            0   -4.9092495    5.9681731    885.15999 
    3500   0.87040476   -6.3194927            0   -5.0153966    6.2200454    882.37415 
    3600   0.87185714   -6.4027193            0   -5.0964473    6.0768963    878.72623 
    3700     0.856253   -6.4510825            0   -5.1681896    5.6400314    881.00041 
    3800   0.80823868   -6.4888616            0   -5.2779068    5.4669927    881.15014 
    3900   0.80283116   -6.5020037            0   -5.2991508    5.5751504    876.80305 
    4000   0.76035468   -6.5798162            0   -5.4406042    5.3347665     874.2509 
Loop time of 0.348259 on 12 procs for 2000 steps with 864 atoms

Performance: 992365.179 tau/day, 5742.854 timesteps/s
99.9% CPU use with 12 MPI tasks x no OpenMP threads

MPI task timing breakdown:
Section |  min time  |  avg time  |  max time  |%varavg| %total
---------------------------------------------------------------
Pair    | 0.1539     | 0.16752    | 0.18566    |   2.1 | 48.10
Neigh   | 0.01708    | 0.017813   | 0.018644   |   0.4 |  5.11
Comm    | 0.10769    | 0.12684    | 0.14073    |   2.5 | 36.42
Output  | 0.00042768 | 0.00043821 | 0.0005147  |   0.0 |  0.13
Modify  | 0.030314   | 0.031052   | 0.031803   |   0.2 |  8.92
Other   |            | 0.004601   |            |       |  1.32

Nlocal:        72.0000 ave          78 max          66 min
Histogram: 2 0 2 1 1 2 0 0 1 3
Nghost:        1561.58 ave        1578 max        1542 min
Histogram: 1 1 1 0 2 1 2 2 1 1
Neighs:        8181.58 ave        9137 max        7129 min
Histogram: 1 0 2 1 1 1 3 2 0 1

Total # of neighbors = 98179
Ave neighs/atom = 113.63310
Neighbor list builds = 110
Dangerous builds = 0

#############################
# F R E E Z E  S Y S T E M  #
#############################

# Define solid atoms. This closely follows ten Wolde  Ruiz-Montero and Frenkel  Faraday Discuss  1996  104  93-110
# Compute components of the per-atom q6 vector
compute q6 all orientorder/atom degrees 1 6 components 6 nnn NULL cutoff 1.3 # compute the Q6 parameter.
                                                                             # Use all neighbours within 1.3 unit cell.

# get number of connections
compute coord_number all coord/atom orientorder q6 0.5

# An atom is solid if it has 8 or more connections (of a possible 14)
variable is_solid atom c_coord_number>=8
group solid dynamic all var is_solid    # Must be dynamic to update
dynamic group solid defined

# do clustering
compute cluster solid cluster/atom 1.3 # Create a cluster where all atoms within are solid and max 1.3 units from another member

# define chunks one chunk per cluster
compute clus_chunks solid chunk/atom c_cluster nchunk every compress yes  # Says which atoms are in which chunk

# count the size of each chunk
compute size_chunks solid property/chunk clus_chunks count


# Find the maximum entry in the vector of chunk sizes
variable max_n equal max(c_size_chunks)


# Thermo style which includes this variable
# thermo_style custom step temp pe vol v_max_n

thermo ${N}  # Print the thermo information every 100 steps
thermo 100  

# Reset the npt fix at a lower temperature (below freezing)

compute myRDF all rdf 100
fix 2 all ave/time 1 50 100 c_myRDF[*] file pcf.rdf mode vector


compute msd all msd com yes
variable twopoint equal c_msd[4]/6/(step*dt+1.0e-6)
fix 9 all vector 10 c_msd[4]
variable fit equal slope(f_9)/6/(10*dt)
thermo_style custom step temp pe c_msd[4] v_twopoint v_fit v_max_n


fix 1  all npt temp  ${temp} ${temp}  0.1  iso  5.68  5.68  0.5  mtk yes tchain  5  pchain  5
fix 1  all npt temp  0.77 ${temp}  0.1  iso  5.68  5.68  0.5  mtk yes tchain  5  pchain  5
fix 1  all npt temp  0.77 0.77  0.1  iso  5.68  5.68  0.5  mtk yes tchain  5  pchain  5

dump dmp2 all dcd ${N} traj.dcd
dump dmp2 all dcd 100 traj.dcd
dump dmp3 all dcd ${N} traj_unwrap.dcd
dump dmp3 all dcd 100 traj_unwrap.dcd
dump_modify dmp3 unwrap yes


# fix rnuntil all halt ${N} v_max_n >= 3980 error soft message no   # Stop when solidified

run 100000 # 5000000  # Run for this many steps
Neighbor list info ...
  update every 1 steps, delay 10 steps, check yes
  max neighbors/atom: 2000, page size: 100000
  master list distance cutoff = 3.8
  ghost atom cutoff = 3.8
  binsize = 1.9, bins = 6 6 6
  5 neighbor lists, perpetual/occasional/extra = 1 4 0
  (1) pair lj/cut, perpetual
      attributes: half, newton on
      pair build: half/bin/atomonly/newton
      stencil: half/bin/3d
      bin: standard
  (2) compute orientorder/atom, occasional
      attributes: full, newton on
      pair build: full/bin/atomonly
      stencil: full/bin/3d
      bin: standard
  (3) compute coord/atom, occasional
      attributes: full, newton on
      pair build: full/bin/atomonly
      stencil: full/bin/3d
      bin: standard
  (4) compute cluster/atom, occasional
      attributes: full, newton on
      pair build: full/bin/atomonly
      stencil: full/bin/3d
      bin: standard
  (5) compute rdf, occasional, copy from (1)
      attributes: half, newton on
      pair build: copy
      stencil: none
      bin: none
Per MPI rank memory allocation (min/avg/max) = 9.697 | 9.705 | 9.711 Mbytes
Step Temp PotEng c_msd[4] v_twopoint v_fit v_max_n 
    4000   0.76035468   -6.5798162 1.5850261e-30 3.3021372e-32 8.3333333e+20            4 
    4100   0.73976111   -6.6062135  0.035090777 0.00071322709  0.031768341            5 
    4200   0.75317507   -6.5992843  0.056098229   0.00111306  0.024859531            6 
    4300   0.78608609   -6.5794748  0.074877326 0.0014511108  0.020624121            4 
    4400   0.77525162   -6.5839224  0.092561106 0.0017530511  0.018772113            9 
    4500    0.7589621   -6.6760254   0.10913558  0.002021029  0.017356891           14 
    4600    0.7427448   -6.6694347   0.12009804 0.0021756889  0.016158811            6 
    4700   0.72841472    -6.659881    0.1329184 0.0023567091  0.014922573           12 
    4800   0.76652748   -6.6222633   0.14492812 0.0025161129  0.014125101            6 
    4900   0.78026737   -6.6459167   0.16279741 0.0027686632  0.013655589            5 
    5000   0.77190848   -6.6531486    0.1715426 0.0028590431  0.013255912            5 
    5100    0.7499732   -6.6271424   0.18045159 0.0029485551  0.012716938            7 
    5200   0.77293539   -6.6787835   0.19098048 0.0030605843  0.012277862            9 
    5300   0.71609701   -6.6624987   0.20674887 0.0032507681  0.011929806           10 
    5400   0.75796208   -6.6528243   0.22019245 0.0033980313  0.011737325           13 
    5500   0.76467737   -6.6863724   0.24567819 0.0037223964  0.011755676           10 
    5600   0.74069529   -6.7386998   0.25450391 0.0037872602  0.011830157            8 
    5700   0.75598208   -6.6720896   0.26657265 0.0038972606  0.011779162            5 
    5800   0.76079141   -6.6347464   0.27962083 0.0040175403   0.01173757           19 
    5900   0.81388444   -6.6318298   0.28970599 0.0040918922  0.011672689            3 
    6000   0.76888436   -6.6326499   0.30179704 0.0041916252  0.011572784            5 
    6100   0.76765862   -6.6850424   0.31371968 0.0042857876   0.01151307           10 
    6200    0.7710136   -6.7382221   0.31472926 0.0042302316  0.011367214           11 
    6300   0.75425225   -6.6994151   0.32423587  0.004288834  0.011194434            6 
    6400   0.80413624   -6.6698752    0.3353302 0.0043662783  0.011038134            4 
    6500   0.75214019   -6.6610972   0.34405431 0.0044109524  0.010895504            8 
    6600   0.72516273   -6.6686253   0.35027018  0.004422603  0.010738493            7 
    6700   0.77442755    -6.717555   0.35544442 0.0044209502  0.010552934            5 
    6800   0.76699791   -6.6477936   0.36503922 0.0044735196  0.010379251           23 
    6900   0.76386296   -6.6958369   0.37682314 0.0045510037  0.010233366            5 
    7000   0.76830341   -6.6791901   0.39010005 0.0046440479  0.010105391            3 
    7100   0.77847679   -6.6496078   0.39823011  0.004674062   0.01000747            3 
    7200   0.73480855   -6.6302351   0.40809124 0.0047232779 0.0099009523            5 
    7300   0.75092745   -6.7424104   0.42569901 0.0048595774 0.0098310072           20 
    7400   0.77966641   -6.7060195   0.44145084 0.0049712929 0.0097908989           11 
    7500   0.75441402   -6.6841086   0.45064556 0.0050071726 0.0097497056            7 
    7600   0.70702031   -6.6510373   0.46185477 0.0050641967 0.0097136556           17 
    7700   0.77169466   -6.6988501   0.47370511 0.0051266784 0.0096816938           12 
    7800   0.75358021   -6.6588049   0.48707565 0.0052037993 0.0096607981           39 
    7900   0.75294398   -6.7366069   0.49717085 0.0052444179 0.0096483301           10 
    8000   0.78190337   -6.6791746   0.50166792 0.0052257072 0.0096166099            9 
    8100   0.76813107   -6.7033141    0.5160887 0.0053095542 0.0095819671            8 
    8200   0.76376037   -6.7254374   0.53994252 0.0054872204  0.009581051            7 
    8300   0.75138889   -6.7483997   0.55654609 0.0055878118 0.0096052596           18 
    8400   0.76514399    -6.682779   0.57878349 0.0057418994 0.0096429891           18 
    8500   0.77272604   -6.6629183   0.59052353  0.005789446 0.0096895564           13 
    8600   0.74801396   -6.7178295   0.59627535 0.0057778616 0.0097197822           16 
    8700   0.77159473   -6.7200388   0.60339502 0.0057796455  0.009734439           18 
    8800   0.74606905   -6.7371272   0.61907864 0.0058624868 0.0097453446           18 
    8900   0.76820393     -6.66822   0.62518561 0.0058537975  0.009759458           36 
    9000   0.77368814    -6.703298   0.63715804 0.0058996111 0.0097631601           29 
    9100   0.77418629   -6.6860167   0.64546538 0.0059108548  0.009763695           11 
    9200   0.76000194   -6.7492716   0.66561323  0.006029105 0.0097671249           10 
    9300   0.78782152   -6.7081229   0.68788933 0.0061638826 0.0097930013           11 
    9400   0.77109524   -6.6646186   0.70246279 0.0062275067 0.0098241614           24 
    9500   0.77074123   -6.6518244   0.71026436 0.0062303888 0.0098535629           11 
    9600   0.75388063   -6.7038927   0.71023018 0.0061651922 0.0098647981           23 
    9700   0.77265605   -6.6840462    0.7162561 0.0061534026 0.0098608904           26 
    9800   0.79677116   -6.6800446   0.72595954  0.006173125 0.0098505153           26 
    9900   0.77655864   -6.6654875    0.7293037 0.0061389197 0.0098369357           24 
   10000   0.78148076   -6.7460238   0.73862001 0.0061551664 0.0098136269           23 
   10100   0.75003988   -6.6808952   0.75492315 0.0062287385 0.0097928822           21 
   10200   0.79770839   -6.6646666   0.75768979 0.0061902757 0.0097776091           20 
   10300   0.76333192   -6.7214181   0.77516625 0.0062715713 0.0097560043           36 
   10400    0.7492377   -6.7098692   0.78391714  0.006281387 0.0097393551           48 
   10500   0.75608414   -6.7439951   0.80305745 0.0063734715 0.0097287866           24 
   10600   0.73657235   -6.7390651   0.79912949 0.0062824643 0.0097056293           13 
   10700   0.77632148   -6.7320549   0.83636104 0.0065137149 0.0096975383           38 
   10800   0.77331637   -6.7706728   0.85411848 0.0065904201 0.0097084091           19 
   10900   0.75802622   -6.7565773    0.8571101 0.0065528292 0.0097150849           14 
   11000   0.79086268    -6.709336   0.85742019 0.0064956072 0.0097134877           20 
   11100   0.77269512   -6.6908388   0.85497127 0.0064187029 0.0097007929           20 
   11200   0.82030386    -6.711485   0.87665667 0.0065227428 0.0096844803           10 
   11300   0.76431532   -6.6827358   0.88710293 0.0065420567 0.0096736512           11 
   11400   0.78588746   -6.7128098   0.90789753 0.0066366775 0.0096694887           10 
   11500   0.75830953   -6.6816018   0.91692826 0.0066444074 0.0096633017            5 
   11600   0.72644775   -6.6702098   0.91801882 0.0065949625  0.009656894            3 
   11700    0.7777936    -6.672068   0.91890755 0.0065449253 0.0096404893            7 
   11800   0.74452184   -6.6637713   0.92544677 0.0065356408 0.0096183143            8 
   11900   0.77237205   -6.6895318   0.93606028 0.0065550437 0.0095954804            8 
   12000   0.74805485   -6.7094782   0.94317313 0.0065498132 0.0095736991            9 
   12100   0.77115144   -6.6882965   0.93374826 0.0064307728  0.009542875           11 
   12200   0.73958707   -6.6986645   0.93174355 0.0063643682 0.0094986509           17 
   12300   0.77569844    -6.643823   0.93851542 0.0063585053 0.0094547059           12 
   12400    0.7832892    -6.739558   0.94926599 0.0063794755 0.0094118898            7 
   12500   0.77342902   -6.7202888   0.95739717 0.0063826475 0.0093689243            4 
   12600   0.74586205   -6.6568121   0.98726531 0.0065295322 0.0093340417            5 
   12700   0.78951576   -6.7070439   0.99091446 0.0065020632 0.0093068571            4 
   12800   0.76895708   -6.6880212    1.0001028 0.0065110859  0.009276945            3 
   12900   0.76859921   -6.6385246    1.0013848 0.0064688935 0.0092477159            6 
   13000   0.79405521   -6.7072195    1.0215617 0.0065484723 0.0092183222            5 
   13100   0.74350122    -6.706268    1.0354374 0.0065867517 0.0091969813            9 
   13200   0.80277027   -6.6673254    1.0348468 0.0065331237 0.0091742318            7 
   13300    0.7759907   -6.6043284    1.0372697 0.0064991836 0.0091473509            6 
   13400   0.78267455   -6.7107448    1.0372314 0.0064504438 0.0091160449            6 
   13500   0.77215633    -6.695473     1.049218 0.0064766538 0.0090806784            6 
   13600   0.78249112   -6.6356277    1.0726196 0.0065724239 0.0090548871           16 
   13700   0.78677107   -6.6796325    1.0748992 0.0065383159 0.0090295063           11 
   13800   0.77367299   -6.7019442    1.0777961 0.0065084301 0.0090020477           17 
   13900    0.7744666   -6.7177755    1.0904068 0.0065372109 0.0089743449            7 
   14000   0.78850147   -6.6794628    1.0935478 0.0065092127 0.0089450948            7 
   14100    0.7683293   -6.6934097    1.0987314 0.0064936839 0.0089155825            7 
   14200    0.7909191   -6.6779268     1.098362 0.0064457862 0.0088843246            7 
   14300   0.77426801   -6.6894778    1.1093252  0.006464599 0.0088540934            6 
   14400   0.73257729   -6.6904579    1.1255897 0.0065138288 0.0088259514            7 
   14500   0.78160561   -6.6947609    1.1249436 0.0064651931 0.0087972313           19 
   14600   0.79352577   -6.7045622    1.1207263 0.0063968393 0.0087650908            6 
   14700   0.77413144   -6.6788942    1.1230497 0.0063664948 0.0087306164           14 
   14800   0.75943776   -6.6798593     1.140878 0.0064238622 0.0086967802           22 
   14900   0.74936895    -6.756147    1.1362345 0.0063547787 0.0086626062            9 
   15000   0.76960163   -6.6962325     1.152828 0.0064045999 0.0086262469            7 
   15100   0.77460769   -6.7264325    1.1831933 0.0065297643 0.0086007465            8 
   15200   0.74814798   -6.7411112    1.1866031 0.0065054993 0.0085783653            8 
   15300   0.80112616   -6.7448386    1.2009633 0.0065411941 0.0085557773            5 
   15400   0.80728524   -6.7213368    1.2131509 0.0065646694 0.0085374002            6 
   15500   0.81859237   -6.6946203      1.21198 0.0065160211 0.0085187654            6 
   15600   0.76486122   -6.7116404    1.2194538 0.0065141763 0.0084975793           16 
   15700   0.77831205   -6.6735345    1.2210823 0.0064813286 0.0084758905           11 
   15800   0.80010154   -6.7156916    1.2263133  0.006467897 0.0084519437           26 
   15900   0.76035449   -6.7140857    1.2323365 0.0064587863 0.0084262753           19 
   16000   0.76594018   -6.6763417    1.2521865 0.0065218044 0.0084041748           12 
   16100   0.79790009   -6.6382135    1.2698359 0.0065726496 0.0083869473            5 
   16200   0.77524437   -6.7058275    1.2863296 0.0066169215 0.0083725056            5 
   16300   0.78658519   -6.7583899    1.2929088 0.0066099631 0.0083581124            9 
   16400   0.72409007   -6.7339351    1.3242825 0.0067290776 0.0083472034            7 
   16500   0.75674737   -6.6849604     1.320377 0.0066685707 0.0083384024           10 
   16600    0.7410432   -6.6997256    1.3258046 0.0066556453 0.0083277151            6 
   16700   0.75907691   -6.8074911    1.3198114  0.006585885 0.0083127404            8 
   16800   0.74859174   -6.7332949    1.3298268 0.0065963631 0.0082951506           11 
   16900   0.77876211   -6.7274022    1.3282052 0.0065493353 0.0082770892            6 
   17000   0.79547528   -6.7151864    1.3278334 0.0065089872 0.0082582268            8 
   17100   0.74761163   -6.7039034    1.3310818 0.0064867531 0.0082391565            3 
   17200   0.77777983   -6.7286462    1.3410343  0.006497259 0.0082184163           16 
   17300   0.79164288   -6.6800868    1.3647471 0.0065739263 0.0082002951           26 
   17400   0.77908257   -6.7434671    1.3701133 0.0065618452 0.0081836309           14 
   17500   0.79482032   -6.7195071    1.3670148 0.0065095942 0.0081657996            4 
   17600   0.74265081   -6.6844233    1.3764056 0.0065170716 0.0081475426            4 
   17700   0.75909768   -6.8037196    1.3877983   0.00653389 0.0081302754            5 
   17800   0.75459797   -6.7584404    1.4001237 0.0065548863 0.0081122757            3 
   17900   0.73922511   -6.6833974    1.4019809 0.0065269129 0.0080953108            5 
   18000    0.8021363   -6.6986131     1.397254 0.0064687685 0.0080759429            6 
   18100   0.76314895   -6.6997344     1.402699 0.0064580984 0.0080570892            4 
   18200   0.79878318   -6.7151394    1.4152983 0.0064803033 0.0080385804           14 
   18300   0.72889817   -6.6987104    1.4226713 0.0064784664 0.0080210157            5 
   18400    0.7598204   -6.6787573    1.4223426 0.0064417688 0.0080024174            6 
   18500   0.78505288   -6.7327605    1.4254076 0.0064207547 0.0079816489            5 
   18600   0.79354659   -6.7260147    1.4110319 0.0063218273 0.0079588643            3 
   18700   0.76144522   -6.7327879    1.4257652 0.0063536773 0.0079341504            6 
   18800   0.78790658   -6.6545536    1.4463943 0.0064113223 0.0079142062            4 
   18900    0.7966765   -6.6530272    1.4617878 0.0064452721 0.0078971904            4 
   19000   0.79172528   -6.7001197    1.4639343 0.0064207643 0.0078799308            6 
   19100    0.7433317   -6.7047536    1.4752105 0.0064363459  0.007861732            6 
   19200   0.79278681   -6.6995359    1.4792578 0.0064203895 0.0078435892            6 
   19300   0.77459391    -6.681819    1.4896353 0.0064319311 0.0078266835            9 
   19400   0.79055049   -6.7055444    1.4976078 0.0064330232 0.0078111578            5 
   19500   0.76814672   -6.6696909    1.4957841 0.0063922397 0.0077940736            3 
   19600   0.76272145   -6.6678659    1.4835784 0.0063077313 0.0077743169            3 
   19700   0.77170551    -6.671894    1.4797892 0.0062596834 0.0077505207            8 
   19800   0.76044741   -6.6862862    1.4958763 0.0062957755 0.0077278057            3 
   19900   0.74871687   -6.7290866    1.4986001 0.0062755445  0.007704195            4 
   20000   0.78179054   -6.6849457    1.4941892 0.0062257882 0.0076813613            3 
   20100   0.73377411   -6.6798694    1.4889165  0.006172954 0.0076559175            2 
   20200   0.75696363   -6.6731058    1.4996768 0.0061867855 0.0076308356            4 
   20300   0.78006742   -6.6986546    1.5305014 0.0062828465 0.0076089446            4 
   20400   0.77024305   -6.7001874    1.5362523 0.0062755402 0.0075894569            2 
   20500   0.76039144   -6.7386078    1.5282971 0.0062125896 0.0075678095            1 
   20600   0.78225831   -6.7724866    1.5366652 0.0062162831 0.0075462906            6 
   20700    0.7494286   -6.7035959    1.5460819 0.0062241621 0.0075255364            2 
   20800   0.78847605   -6.6966769    1.5521658 0.0062186127 0.0075063798            4 
   20900   0.76214437   -6.7336293    1.5731063 0.0062723536   0.00748765            4 
   21000    0.7898421   -6.6834501     1.593913 0.0063250516 0.0074704453            7 
   21100   0.78333837    -6.702025    1.5993249 0.0063164488 0.0074563008            5 
   21200    0.7629857   -6.7056618    1.5983082  0.006282658 0.0074407522           12 
   21300   0.78546322   -6.6778061    1.6012336 0.0062646069 0.0074250284            4 
   21400   0.76020483    -6.684295    1.6125648  0.006279458  0.007409246            3 
   21500   0.75160265   -6.7378275    1.6132992 0.0062530977 0.0073926402            2 
   21600   0.75820275   -6.6916675    1.6170831 0.0062387465 0.0073766133            3 
   21700   0.76779477   -6.7220518    1.6387168  0.006293075 0.0073610473            3 
   21800    0.7827017   -6.7838744    1.6540704 0.0063228991  0.007347078            2 
   21900   0.76878222   -6.7457012    1.6326831 0.0062126447 0.0073316285            6 
   22000   0.79575463   -6.6700902    1.6611072 0.0062920724 0.0073161126            7 
   22100   0.78327994   -6.6816289    1.6551697  0.006241213 0.0073026023            5 
   22200   0.75410988   -6.7211286    1.6625083 0.0062406467 0.0072876854           14 
   22300   0.78258161   -6.6749075    1.6833539 0.0062905599  0.007274237            3 
   22400   0.80293673   -6.7028977    1.6987877 0.0063198945 0.0072628595           15 
   22500   0.77830919   -6.7481318    1.7079831 0.0063258632 0.0072522779           15 
   22600   0.78766878   -6.7272705    1.7220949 0.0063499072 0.0072421638           15 
   22700   0.80877398   -6.6682061    1.7301243 0.0063514107 0.0072333807            5 
   22800   0.75788003   -6.6511173    1.7070967 0.0062393883  0.007221956           11 
   22900   0.79976686   -6.6930617    1.7216617 0.0062651442 0.0072099377            8 
   23000   0.82471416   -6.6727124    1.7171404 0.0062215231  0.007198029           14 
   23100   0.77537741    -6.706893    1.7146023 0.0061854338  0.007183912           18 
   23200   0.79942415   -6.6855283    1.7145439 0.0061585627 0.0071687013           12 
   23300   0.79113134   -6.6297996    1.7422089  0.006231076 0.0071556926            8 
   23400   0.76449216   -6.6941677    1.7674725 0.0062944178 0.0071449169            8 
   23500   0.74288236   -6.6778088    1.7932989 0.0063592157 0.0071360617            6 
   23600   0.78080562   -6.6604717    1.7880086 0.0063135896 0.0071268412           13 
   23700   0.77673326   -6.6851574    1.7609374 0.0061917629 0.0071159211            5 
   23800    0.7636544   -6.6954009    1.7678975 0.0061901172 0.0071031842           13 
   23900    0.7977011   -6.7259764    1.7922587 0.0062491585  0.007092335           15 
   24000   0.78328817   -6.6700341    1.8013625 0.0062547308 0.0070820723           16 
   24100    0.8151433   -6.6268521    1.8219742 0.0063000489 0.0070731357            3 
   24200   0.77622732   -6.6670938    1.8344464  0.006316964 0.0070652187            3 
   24300   0.79883935   -6.7165543    1.8342415 0.0062902657 0.0070570768            8 
   24400   0.75465149   -6.6701387     1.840639 0.0062863354 0.0070486534           11 
   24500   0.80757124   -6.6963292    1.8236874 0.0062030183 0.0070386172           36 
   24600   0.80712881   -6.7276244     1.845587 0.0062519883 0.0070284017           41 
   24700   0.80468423   -6.6852726    1.8459228 0.0062278096 0.0070192804           15 
   24800   0.82793793   -6.6482866    1.8553629 0.0062344183 0.0070097231           12 
   24900   0.77551587   -6.6745036    1.8428314  0.006167441 0.0069987376           16 
   25000   0.75942952   -6.6806623    1.8514529 0.0061715096 0.0069867712            9 
   25100   0.78825484   -6.6546275    1.8722947 0.0062161178 0.0069758813            7 
   25200    0.7499409   -6.6980322    1.8863839  0.006238042 0.0069666621           17 
   25300   0.80353169   -6.6890515    1.8969215 0.0062480945 0.0069583836           15 
   25400   0.76109145   -6.6607214    1.9047097 0.0062490475 0.0069503103           15 
   25500   0.74074408   -6.7158371    1.9389398 0.0063364043 0.0069438152           14 
   25600   0.78663729   -6.7295208    1.9692622 0.0064103585 0.0069394326            8 
   25700   0.73728411   -6.6966845    1.9690585 0.0063847551 0.0069355391           13 
   25800   0.77468653   -6.6615967    1.9749064 0.0063788964  0.006931907            5 
   25900   0.77389336   -6.6700099    1.9516414 0.0062794125 0.0069258006            7 
   26000   0.76038305   -6.6519868    1.9343374 0.0061997992 0.0069174412           14 
   26100   0.80793273   -6.6654864    1.9340094 0.0061749981 0.0069082125           20 
   26200   0.76518662   -6.6732992    1.9496957 0.0062013222 0.0068991288           30 
   26300   0.74494088   -6.6644997    1.9613789  0.006214762 0.0068904301           19 
   26400   0.76290942   -6.6539577    1.9704253 0.0062197766 0.0068821696           14 
   26500   0.77573459   -6.6572018    1.9826782  0.006234837  0.006874719           11 
   26600   0.78280534   -6.6540214    2.0026481   0.00627396 0.0068674295           21 
   26700   0.75892836   -6.6939515    2.0038949 0.0062543534 0.0068607084           15 
   26800   0.78576618   -6.6515625    2.0102717 0.0062508448 0.0068539018            7 
   26900   0.77926654   -6.6453696    2.0125812 0.0062347621  0.006848013            3 
   27000   0.81457802   -6.7037247    2.0166091 0.0062241022  0.006841487            5 
   27100   0.75880132   -6.7233408    2.0144351 0.0061944498 0.0068341523            5 
   27200   0.78239385   -6.7455173     2.022444 0.0061962133 0.0068256812            6 
   27300   0.77735819     -6.66834    2.0320353 0.0062027937 0.0068180324           11 
   27400   0.75274345   -6.7219508    2.0490203 0.0062318135 0.0068108389            3 
   27500   0.77880271   -6.7057127    2.0545538 0.0062259204 0.0068041545            4 
   27600   0.84089913   -6.7047577    2.0686744 0.0062459973 0.0067978268            9 
   27700   0.77429554   -6.6799755    2.0890356  0.006284704 0.0067926234            4 
   27800   0.74220341   -6.6828662    2.0925529 0.0062726406 0.0067880959            5 
   27900    0.7952434   -6.6586318    2.1120914 0.0063085166 0.0067832818            4 
   28000   0.78790041   -6.7292151    2.1206719 0.0063115233 0.0067793538            8 
   28100   0.77475145   -6.7111029    2.1236336 0.0062978458 0.0067751353           17 
   28200   0.75694992   -6.7191705     2.117862 0.0062584574 0.0067708769           11 
   28300   0.73220472   -6.7654391    2.1142397 0.0062256762 0.0067651871           12 
   28400   0.77735546   -6.7643387    2.1300475 0.0062501393 0.0067597025            9 
   28500   0.80469061   -6.7413452    2.1330384 0.0062369542  0.006754726           31 
   28600   0.74656984    -6.685062    2.1377914 0.0062289959 0.0067491699           18 
   28700   0.78072642   -6.6987837    2.1423561 0.0062205462 0.0067438831           12 
   28800   0.80521746   -6.7185657    2.1634753 0.0062600558 0.0067391017            5 
   28900   0.74854208    -6.716328    2.1680286 0.0062515241 0.0067338956            4 
   29000   0.76890362   -6.6501184    2.1593747 0.0062050996 0.0067282305            6 
   29100   0.79758904   -6.6617669     2.167281 0.0062064175 0.0067226906            7 
   29200   0.79227096   -6.7239155    2.1875893 0.0062431202 0.0067179359           14 
   29300   0.74419656   -6.6754138    2.2041775 0.0062689916  0.006714118           12 
   29400   0.76531901   -6.6535223     2.230753 0.0063229959 0.0067110833           17 
   29500   0.75473578   -6.6753204    2.2182545 0.0062662555  0.006707277           11 
   29600   0.72725533    -6.693249    2.2219568 0.0062555089 0.0067026844            8 
   29700    0.7737008   -6.6834622    2.2654646 0.0063565225 0.0066993259           14 
   29800   0.73074343   -6.6555605    2.2648744 0.0063335412 0.0066969693            5 
   29900   0.73762161   -6.7066574    2.2919095 0.0063877076 0.0066956088            3 
   30000   0.77465299   -6.7021152    2.2817843 0.0063382896 0.0066932944           12 
   30100   0.79447816     -6.67592    2.2830537 0.0063207465 0.0066910161           15 
   30200   0.75454179   -6.7144618    2.2920166 0.0063245491 0.0066885179           11 
   30300   0.77277626   -6.6921879    2.3161304 0.0063699956 0.0066865346           14 
   30400   0.75306902    -6.687167     2.336629 0.0064052328 0.0066856362            7 
   30500   0.72805835   -6.7192504    2.3682238 0.0064705566 0.0066863564            6 
   30600   0.74397523   -6.6838918    2.3937022 0.0065187967 0.0066881598           11 
   30700   0.73732017   -6.7180093    2.4220783 0.0065745881 0.0066906585            6 
   30800   0.75196942   -6.6800085    2.4253939 0.0065622129 0.0066939473            7 
   30900   0.72335604   -6.6889096    2.4359016 0.0065693138   0.00669725            7 
   31000    0.7724303   -6.6785421    2.4179435 0.0064998481 0.0067000142           13 
   31100   0.74664255   -6.7363308    2.4304851 0.0065125538 0.0067020141            8 
   31200   0.77913136   -6.7033535    2.4254678 0.0064782791 0.0067039888            4 
   31300    0.7710966   -6.6934214    2.4251444 0.0064567209 0.0067048547            4 
   31400   0.79569685   -6.7544667    2.4524621 0.0065086574 0.0067065495           12 
   31500   0.79421087   -6.6669484    2.4499238 0.0064812798 0.0067080051           10 
   31600   0.77278845   -6.6950836    2.4474589 0.0064542692 0.0067088284            7 
   31700   0.76367412   -6.6687246    2.4443641 0.0064257729  0.006709224           13 
   31800   0.74498171   -6.6852179    2.4468966 0.0064122026 0.0067094152            9 
   31900   0.81476933   -6.7246424    2.4549428  0.006413121 0.0067091552           12 
   32000    0.7847505   -6.7054605    2.4669666  0.006424392 0.0067090818            6 
   32100   0.80854782   -6.6566145    2.4708493  0.006414458 0.0067094051            7 
   32200   0.80923031   -6.7018903    2.4971796   0.00646268 0.0067100366           11 
   32300   0.74719276   -6.6807641    2.4893966 0.0064225916 0.0067102003            9 
   32400    0.7622345   -6.7938302    2.5124657 0.0064621029 0.0067104097            9 
   32500   0.70320558   -6.7085497    2.5139236 0.0064459578 0.0067101636            3 
   32600   0.79094194   -6.7282986    2.5048448 0.0064029773 0.0067099176            9 
   32700    0.8038958   -6.7014959    2.5215431 0.0064259507 0.0067096208            3 
   32800   0.77241917   -6.6505564    2.5141622 0.0063876071 0.0067090384            6 
   32900   0.78697341   -6.6943143    2.5352284  0.006421551 0.0067082381            9 
   33000    0.7684051   -6.7276994    2.5403063 0.0064149149 0.0067080361            6 
   33100   0.74791631   -6.7178734    2.5748402 0.0064824777 0.0067081258            9 
   33200   0.77388339   -6.6657324    2.6061842  0.006541627 0.0067098131            8 
   33300   0.79291143   -6.6732035    2.6068038 0.0065235329 0.0067119375            4 
   33400   0.77526345   -6.7312843    2.5914632 0.0064657264 0.0067129028            5 
   33500   0.74286614   -6.6867376    2.6129551 0.0064998882 0.0067137998            7 
   33600   0.73839281   -6.6747158    2.6438898 0.0065572662 0.0067157784            5 
   33700   0.77366078   -6.7117459    2.6401111 0.0065284645 0.0067174712            6 
   33800   0.72925551   -6.6832619    2.6361483 0.0064993793 0.0067182201            4 
   33900   0.75720138   -6.6986858    2.6506243 0.0065157921 0.0067188515            3 
   34000   0.75357739   -6.7062208     2.640755 0.0064724387 0.0067197803            6 
   34100   0.77988049   -6.6760642    2.6347782 0.0064388518 0.0067196231            5 
   34200   0.76685962   -6.7025885    2.6719868 0.0065106889 0.0067199212            2 
   34300   0.75376846   -6.6821429    2.6773085 0.0065046367 0.0067208979            3 
   34400   0.80551527   -6.7648533    2.6715215 0.0064717089 0.0067211749            2 
   34500   0.77216115   -6.7144668    2.6624323 0.0064309957 0.0067213195            5 
   34600   0.78765983   -6.7059076    2.6967209 0.0064949924 0.0067213881            5 
   34700     0.783934   -6.7003526    2.7278729 0.0065510875 0.0067231359           17 
   34800   0.76253698   -6.6390192    2.7214927 0.0065169844 0.0067245623            7 
   34900   0.78319774   -6.7176633    2.7279062 0.0065136251  0.006725536           10 
   35000   0.76728258   -6.7465532    2.7133738 0.0064604136 0.0067259346            8 
   35100   0.76831896   -6.6655235    2.7324013 0.0064871824 0.0067260717           10 
   35200   0.77933168   -6.6780284    2.7574298  0.006528006 0.0067267574           15 
   35300    0.7738497   -6.7695466    2.7586783 0.0065124605 0.0067278608           45 
   35400   0.76762221   -6.7059911    2.7770807 0.0065373838 0.0067289779           39 
   35500   0.78304856   -6.6691637    2.8165942 0.0066117234 0.0067317289           46 
   35600   0.79995577   -6.6653983    2.8395671 0.0066469266 0.0067355132           14 
   35700   0.80557048   -6.7282437    2.8709582 0.0067015831 0.0067397066           24 
   35800   0.75729371   -6.7151426    2.8653998  0.006669925 0.0067436207           41 
   35900   0.76556164   -6.7231952    2.8567722 0.0066313188 0.0067471609           20 
   36000   0.78649923   -6.6795996    2.8543962 0.0066073986 0.0067498728           36 
   36100   0.75488856   -6.6747887     2.858513 0.0065985988 0.0067520255           30 
   36200   0.75968127   -6.6831222    2.8443054 0.0065476643 0.0067536698           13 
   36300   0.77925371   -6.7292682    2.8593834 0.0065642409 0.0067547816           11 
   36400   0.77646321   -6.6797885    2.8948883 0.0066274915  0.006757051           24 
   36500   0.76615143   -6.6887008    2.9158514  0.006657195 0.0067600947           28 
   36600   0.76228811   -6.7086811     2.927438 0.0066653871 0.0067633595           29 
   36700   0.79337867   -6.6642812    2.9336924 0.0066614267 0.0067667468           18 
   36800   0.77667023   -6.7303916    2.9369631 0.0066507315 0.0067695075           31 
   36900   0.75750817   -6.6947047    2.9285104 0.0066136187 0.0067720025           48 
   37000   0.80255488   -6.7003446     2.922653 0.0065825516 0.0067735221           18 
   37100    0.7875282    -6.673721    2.9291222   0.00657934 0.0067752268           19 
   37200   0.70940336   -6.6753686    2.9362235 0.0065775616 0.0067760377           28 
   37300   0.78675218   -6.7543468    2.9450327 0.0065796083  0.006777068           25 
   37400   0.75022325   -6.7305011    2.9497645  0.006572559 0.0067779469           20 
   37500    0.7829216   -6.7487167    2.9626964 0.0065837697 0.0067790781           21 
   37600   0.81803105   -6.7402881    2.9757367  0.006595161 0.0067806258           14 
   37700   0.77459923   -6.7498559    2.9540016 0.0065296231 0.0067816862           15 
   37800    0.7622321   -6.6970331    2.9707082 0.0065491803 0.0067819834           14 
   37900   0.76827251   -6.7011066    2.9956581 0.0065867592 0.0067831105            9 
   38000   0.72643369   -6.6544285    2.9776508  0.006529936 0.0067835879           23 
   38100   0.77183085   -6.6626986    3.0059311 0.0065746525 0.0067840052           21 
   38200   0.75247056   -6.6891354    3.0194945 0.0065870298 0.0067847929           14 
   38300   0.73892553   -6.7156291    3.0027335 0.0065333626 0.0067850996           20 
   38400   0.78414274    -6.694042    2.9946092 0.0064987179 0.0067846312           17 
   38500   0.73659339    -6.619939    2.9938582 0.0064802124 0.0067840282           16 
   38600   0.77227381   -6.6739786    3.0271194 0.0065352317 0.0067837489            7 
   38700   0.78024525    -6.772692    3.0535339 0.0065752238 0.0067843322           13 
   38800   0.78727157   -6.7243613    3.0723093 0.0065986023 0.0067855626           17 
   38900   0.75739841   -6.6881828    3.0855225 0.0066099453 0.0067869582           12 
   39000   0.80305897   -6.6792729    3.1220095 0.0066709605 0.0067890474            7 
   39100   0.76736868   -6.6456782    3.0992917 0.0066054809 0.0067907251            5 
   39200   0.77066231   -6.7013987    3.1089406 0.0066091423 0.0067918666           19 
   39300   0.77532648   -6.6923183    3.1222337 0.0066205124 0.0067936302            8 
   39400   0.76948867   -6.7456554    3.1472573 0.0066566355 0.0067956056           12 
   39500   0.78181789    -6.675581    3.1559135 0.0066580453 0.0067975348           18 
   39600   0.76447791   -6.6732951    3.1415169 0.0066109362 0.0067990719           32 
   39700   0.78544514    -6.738787    3.1292519 0.0065685387 0.0068001539            8 
   39800   0.74484102   -6.7434077    3.1176058 0.0065276503 0.0068002772            9 
   39900   0.73365619   -6.7231171    3.1070108  0.006489162 0.0067993755           16 
   40000    0.7663789   -6.6757233     3.122331 0.0065048561 0.0067983906           35 
   40100   0.80619583   -6.6917666    3.1292868 0.0065030896 0.0067980462           17 
   40200   0.78618028   -6.7472481    3.1185259 0.0064646058 0.0067972427           21 
   40300   0.75271341   -6.7496412    3.1446414  0.006502567 0.0067960899            9 
   40400   0.78817097   -6.7265829    3.1770901 0.0065534035 0.0067958063            8 
   40500   0.79161758   -6.6610252    3.1961395 0.0065764187 0.0067965808           12 
   40600   0.78973682   -6.7370551    3.1950758 0.0065580374 0.0067968599           16 
   40700    0.7922971   -6.7489516    3.2044798 0.0065611789 0.0067969937           31 
   40800   0.76252934   -6.6952315    3.2170105 0.0065706913 0.0067971891           11 
   40900   0.75251309   -6.6905728    3.2359541 0.0065932234 0.0067977382           12 
   41000   0.79808042   -6.7188162    3.2302948 0.0065656397 0.0067981978           13 
   41100   0.75216928   -6.6845554    3.2184945  0.006525739 0.0067983444           12 
   41200    0.7416821   -6.7452257    3.2227368 0.0065184806 0.0067980334           10 
   41300   0.80227315   -6.7408371      3.22722 0.0065117432 0.0067972557           12 
   41400   0.74314703   -6.6673404    3.2291517 0.0064999027 0.0067966707           31 
   41500   0.81163921   -6.6873001    3.2449432 0.0065159501 0.0067958142           11 
   41600   0.74967117     -6.68355    3.2971166 0.0066048009 0.0067960946           10 
   41700   0.73992054   -6.7174322    3.3031403 0.0066009996  0.006796738           17 
   41800   0.76706161   -6.7373838    3.2908031 0.0065606123 0.0067967103           16 
   41900   0.80052862   -6.6975246    3.2934851 0.0065502885 0.0067968677           14 
   42000   0.77883382   -6.6835331    3.2926098 0.0065329559 0.0067968813           13 
   42100   0.78732385   -6.7221813    3.2934422 0.0065190857 0.0067962595           15 
   42200   0.75697149   -6.7302344    3.2947196 0.0065061603 0.0067956912           12 
   42300   0.74495518   -6.7320245    3.2997574  0.006500704 0.0067949376           11 
   42400   0.77587866    -6.729443    3.3104854 0.0065064571 0.0067941632           14 
   42500   0.77559153   -6.6859422    3.3149802 0.0064999612 0.0067932952           10 
   42600   0.77301732   -6.7042231    3.3226982 0.0064998008 0.0067926252            8 
   42700    0.7745495    -6.777509     3.327088 0.0064931458 0.0067914214            6 
   42800   0.74056292    -6.712539    3.3351564 0.0064936844 0.0067904449           12 
   42900   0.75774879   -6.6759985    3.3420563 0.0064919507 0.0067892653           12 
   43000     0.800099   -6.6917165     3.378207 0.0065469128 0.0067887435           10 
   43100   0.75273826   -6.7262076    3.3827229 0.0065404541 0.0067886317           10 
   43200   0.77131779   -6.7415993    3.4040661 0.0065664855   0.00678836           10 
   43300   0.75686811   -6.7424882    3.4238693 0.0065894328 0.0067884904           13 
   43400   0.76132099   -6.7415417    3.4130037 0.0065533864  0.006788584           13 
   43500   0.78156295   -6.6526818    3.4335673  0.006577715  0.006788819           18 
   43600   0.78960493   -6.7389855     3.458417 0.0066101242 0.0067896657            6 
   43700    0.7722747   -6.7288209     3.470074 0.0066172273 0.0067903676            7 
   43800   0.81013735   -6.6888283    3.4726458 0.0066070124 0.0067913203           10 
   43900   0.77005223   -6.6892627    3.4873993 0.0066199682 0.0067922603           10 
   44000   0.77781762   -6.7638575    3.5048649 0.0066380016 0.0067931973           11 
   44100   0.77365227   -6.6917807    3.5036908 0.0066207309 0.0067943102           11 
   44200   0.81532365   -6.7163741    3.5067492 0.0066115181 0.0067952876           10 
   44300    0.7232499     -6.67663     3.497392 0.0065789916 0.0067955429            5 
   44400   0.79889377   -6.7795714    3.5156653 0.0065984709 0.0067958437           11 
   44500   0.73784181   -6.7742617    3.5157373 0.0065837776 0.0067958317           22 
   44600   0.74755421   -6.6859381    3.5362433 0.0066073304 0.0067963576            8 
   44700   0.78091592   -6.7090848    3.5316911 0.0065840623 0.0067967594           24 
   44800   0.72669456   -6.6943633    3.5384307 0.0065819022 0.0067970748           16 
   44900   0.77719269   -6.7245578    3.5513031 0.0065911342 0.0067973126           27 
   45000   0.78165698    -6.742593    3.5316031 0.0065400057 0.0067970902           18 
   45100   0.74647977    -6.731515    3.5410356 0.0065429334  0.006796691           35 
   45200   0.74543408   -6.7397025    3.5408132 0.0065280479 0.0067960151           35 
   45300    0.7503429   -6.8249481    3.5253808 0.0064852479 0.0067948165           67 
   45400   0.77847118   -6.7339538    3.5500479 0.0065162406 0.0067934265           51 
   45500   0.80501704   -6.6864939    3.5553103 0.0065115573 0.0067928812           35 
   45600   0.78149395   -6.7295867    3.5502921 0.0064881069 0.0067920347           31 
   45700   0.76500891   -6.7451554    3.5804664  0.006528932 0.0067912807           19 
   45800   0.78479016   -6.7159417    3.5745516 0.0065039148 0.0067904528           24 
   45900   0.77817489   -6.6926967    3.5637313 0.0064701003 0.0067894287           18 
   46000   0.81167007   -6.6769207    3.5786282 0.0064830221 0.0067879695           20 
   46100   0.76919702   -6.6960838    3.5911948 0.0064916753 0.0067868123           29 
   46200   0.77284421   -6.7249103    3.5905099 0.0064763887  0.006785679           27 
   46300   0.77040187   -6.6768632    3.5755911 0.0064355491 0.0067837025           22 
   46400     0.754624   -6.6924405    3.6006866 0.0064667502 0.0067820081           23 
   46500   0.76686443   -6.7293847     3.639645 0.0065226612 0.0067811677           16 
   46600   0.79043619   -6.7240496    3.6441075 0.0065166442 0.0067803989           25 
   46700   0.75370129   -6.7477407    3.6883393  0.006581619 0.0067798812           28 
   46800   0.77746321   -6.7120652    3.7295544 0.0066409444 0.0067805614           21 
   46900    0.7472861   -6.6980383    3.7444974 0.0066533358 0.0067813865           12 
   47000   0.78827292    -6.737076    3.7598431 0.0066663885 0.0067827736           30 
   47100   0.77215341   -6.6889058    3.7733001  0.006676044 0.0067845688           18 
   47200   0.80294034   -6.6617283    3.7730517 0.0066614612 0.0067862657           19 
   47300   0.77228717   -6.6585967    3.7830927 0.0066650681 0.0067877971            6 
   47400   0.78154966   -6.7126617    3.7786965 0.0066432778 0.0067889701           12 
   47500   0.77778105    -6.716503     3.777312 0.0066268631 0.0067897884            4 
   47600   0.76506036   -6.6678426    3.7738814 0.0066069352 0.0067904043            8 
   47700   0.77871513   -6.7418521    3.7728053 0.0065912041 0.0067909791            9 
   47800   0.77617413   -6.7683622    3.8129111 0.0066473345 0.0067916862            8 
   47900   0.77083384   -6.7270483    3.8129834 0.0066335827 0.0067924617            5 
   48000    0.7680259   -6.6691307    3.8297022 0.0066487884 0.0067932591            6 
   48100   0.80272033    -6.679949    3.8318239 0.0066386414 0.0067942343            4 
   48200   0.75396052   -6.7186944    3.8396949 0.0066384765 0.0067948708           10 
   48300   0.79543011   -6.7617005    3.8722445  0.006680891 0.0067957574            5 
   48400   0.79553054   -6.6761462    3.8918108  0.006700776 0.0067972547            2 
   48500   0.78946638   -6.6871505    3.8887893 0.0066817685  0.006798757            4 
   48600   0.76616053   -6.6907291    3.9039354 0.0066939907 0.0068003937            5 
   48700   0.79221423   -6.7454178     3.950191 0.0067593959 0.0068023909            5 
   48800   0.77739166   -6.6979226    3.9550727 0.0067538809 0.0068047989           12 
   48900   0.75848106   -6.6668606    3.9933155 0.0068052412 0.0068075031            4 
   49000   0.75424731   -6.7076495     4.006846 0.0068143639 0.0068103825           12 
   49100   0.78800754   -6.7006363     3.997192 0.0067841005 0.0068129756            2 
   49200   0.75072348    -6.668801    3.9685936 0.0067218726  0.006814735            3 
   49300   0.76920403   -6.7240916    3.9760923 0.0067209132 0.0068163585            3 
   49400    0.7537701    -6.697075    3.9857942 0.0067236744 0.0068183236            3 
   49500   0.78056932   -6.7306106    4.0130716 0.0067560127 0.0068202387            3 
   49600   0.77110656   -6.6759964    3.9927014 0.0067081676 0.0068219201            4 
   49700   0.78312872   -6.7076071    4.0082121 0.0067206775 0.0068234144           14 
   49800   0.78303936   -6.7301935    4.0408887 0.0067618619  0.006825444            6 
   49900   0.80479952    -6.784023    4.0338054 0.0067364819 0.0068274166           11 
   50000   0.78325792   -6.6652359    4.0286471 0.0067144118 0.0068292598            7 
   50100   0.78274043   -6.6597117    4.0258631  0.006696379  0.006830768            2 
   50200    0.7601002   -6.7330191    4.0173919 0.0066689772 0.0068317101            5 
   50300   0.76532455   -6.7229444    4.0179025 0.0066565648 0.0068320059            9 
   50400    0.7859308   -6.7538192    4.0478437 0.0066928632  0.006832882            8 
   50500   0.74366382   -6.6562191    4.0653748 0.0067085391 0.0068338786           10 
   50600   0.78496183   -6.7354396    4.0575283 0.0066823588 0.0068351169            8 
   50700   0.78265019   -6.7696478     4.082068 0.0067095134 0.0068364103            5 
   50800   0.78438269   -6.6988516    4.0791125 0.0066914575 0.0068373885            7 
   50900   0.75506161   -6.7086265     4.075531 0.0066724476 0.0068381346            8 
   51000   0.75485976   -6.7137651     4.094974  0.006691134 0.0068388105           11 
   51100   0.74938302   -6.6549896    4.0795569 0.0066528977 0.0068394366           11 
   51200   0.75189422   -6.7011006    4.0934287 0.0066624816 0.0068398884           15 
   51300   0.76161082   -6.7340657      4.06528 0.0066037686 0.0068395338           14 
   51400   0.75768392   -6.6906457    4.0851051 0.0066230627 0.0068395389            4 
   51500   0.79884194   -6.7028289    4.1184231 0.0066641149 0.0068399721            4 
   51600   0.76704346   -6.7661616    4.1356833  0.006679075 0.0068405659            7 
   51700   0.78898939   -6.7489611    4.1693037 0.0067203476 0.0068416215            1 
   51800   0.78434177   -6.7132641    4.1750625 0.0067166384 0.0068427916            7 
   51900   0.75915568   -6.6300619    4.1955796 0.0067366403 0.0068442621            3 
   52000   0.77744967   -6.6749613    4.2080187 0.0067436197 0.0068457473            4 
   52100   0.73137399   -6.6967801    4.2564106 0.0068080784 0.0068473691            4 
   52200   0.77618873   -6.7046591    4.2425524 0.0067729125   0.00684918            4 
   52300   0.77286222   -6.7322034    4.2228183 0.0067285186 0.0068503436            1 
   52400    0.7552296   -6.7291945    4.2062312 0.0066892989 0.0068511141            3 
   52500   0.78859178   -6.7245419    4.2042484 0.0066734101 0.0068517634            3 
   52600   0.78777647   -6.6546891    4.1959401 0.0066475603 0.0068522791            2 
   52700   0.75749876   -6.6606416    4.1980306  0.006638252 0.0068523587            9 
   52800    0.7814752   -6.7529742    4.1935118 0.0066185477 0.0068521254            5 
   52900    0.7404348    -6.681953    4.2032255 0.0066213382 0.0068517352            7 
   53000   0.77258277   -6.6847699    4.2464123 0.0066767488 0.0068517275           14 
   53100   0.78829051   -6.6909932    4.2862426 0.0067266833 0.0068525565            8 
   53200   0.73812609   -6.6806296     4.249695 0.0066567903 0.0068529287            7 
   53300   0.76084494   -6.6768821    4.2616261 0.0066629551 0.0068530648           10 
   53400   0.77147508   -6.6675674    4.2934376 0.0067001211 0.0068534515            5 
   53500   0.75621991   -6.6746235    4.2857023 0.0066755487 0.0068541105            6 
   53600   0.78119976   -6.7543493    4.2746701 0.0066459423 0.0068542334           12 
   53700   0.75354186   -6.7832026     4.282464  0.006645661 0.0068543607            9 
   53800   0.76086957   -6.7209847    4.2864498 0.0066394822 0.0068543752            9 
   53900   0.76783868   -6.6747188    4.3342854 0.0067011214 0.0068547666           10 
   54000   0.78483806    -6.699185    4.3505261 0.0067137748  0.006855542           16 
   54100   0.75571979   -6.7325839    4.3377812 0.0066817331 0.0068560344           27 
   54200   0.73826654   -6.6961038    4.3660286 0.0067128361 0.0068566061           14 
   54300   0.77308454   -6.7103815     4.377116 0.0067174892 0.0068572057           14 
   54400   0.75622921   -6.7385477    4.3449094 0.0066558048 0.0068572055           26 
   54500   0.78174216   -6.7367791    4.3434482  0.006641358 0.0068568757           16 
   54600   0.76267704   -6.7507274    4.3407474 0.0066250723 0.0068567389           32 
   54700   0.79928199   -6.7127528    4.3638463 0.0066481509 0.0068566515           42 
   54800   0.79485248   -6.7405023    4.3766706 0.0066555209 0.0068567926           14 
   54900   0.77984399   -6.7541339     4.371194 0.0066350849 0.0068567412           14 
   55000   0.77063387   -6.7385989    4.3973653 0.0066626746 0.0068568242           17 
   55100   0.76973629   -6.7102434    4.4110558 0.0066712882 0.0068569207            8 
   55200   0.72111596    -6.738711     4.435751  0.006696484 0.0068574403            5 
   55300   0.74239544   -6.7274902    4.4463538 0.0067003522 0.0068576967            7 
   55400   0.76963675   -6.7598998    4.4443175 0.0066851947 0.0068580443           19 
   55500   0.75387774   -6.8008628    4.4161447 0.0066308479 0.0068578726           22 
   55600   0.77663213   -6.7265649    4.4127781  0.006613876  0.006857566           18 
   55700    0.7654496   -6.6714961    4.4441696  0.006648967  0.006857302           25 
   55800   0.79168144   -6.7471604    4.4691672 0.0066743835 0.0068576156           21 
   55900   0.75832551   -6.7800844    4.4910519 0.0066950683  0.006857641           31 
   56000   0.78687853   -6.7553643    4.4963585 0.0066910096  0.006857962           23 
   56100   0.73796294   -6.7084754    4.5015647 0.0066868162  0.006858314            9 
   56200   0.75375231   -6.6928504    4.4975952  0.006669032 0.0068585392           29 
   56300   0.76763427   -6.6833529    4.5283294 0.0067026781 0.0068590048           35 
   56400   0.78005236   -6.6716825    4.5367909 0.0067032962 0.0068595609           37 
   56500   0.77218257   -6.7564495    4.5454155 0.0067041526 0.0068599909           42 
   56600    0.7340287   -6.6953328     4.561909 0.0067165915 0.0068604199           31 
   56700   0.75786903   -6.7206665    4.5937605 0.0067515585  0.006861412           26 
   56800   0.80668966   -6.7236662    4.6088154 0.0067617596 0.0068625841           32 
   56900   0.76606834    -6.663185    4.5998609 0.0067367617 0.0068637587           24 
   57000   0.77877354    -6.727275     4.572753 0.0066853113 0.0068644299           21 
   57100   0.78166371   -6.7118255    4.5842945 0.0066904472 0.0068648707           30 
   57200   0.78518096   -6.6938215    4.5667762 0.0066532287 0.0068651726           25 
   57300   0.77680009   -6.7151784    4.5954373 0.0066833003 0.0068653728           19 
   57400   0.77433759   -6.7028543    4.5897297 0.0066633706 0.0068655938           31 
   57500   0.74270721     -6.67583    4.6208381 0.0066968667 0.0068658205           34 
   57600   0.77103763   -6.7489531    4.6023273 0.0066584596 0.0068659907           32 
   57700   0.76191154   -6.7472308    4.6395981 0.0067007482 0.0068662012           24 
   57800   0.74340315   -6.6856605    4.6463172 0.0066988425 0.0068664292           28 
   57900   0.74665479   -6.7687067    4.6277902 0.0066606077  0.006866355           28 
   58000   0.76106615     -6.72082     4.660114  0.006695566 0.0068663423           20 
   58100   0.79740376   -6.7107638    4.7013509 0.0067431883 0.0068671801           23 
   58200   0.77468739   -6.7145497    4.7043881 0.0067359509 0.0068680624           29 
   58300   0.74147954   -6.7595195    4.7057522 0.0067263467 0.0068686659           20 
   58400   0.72184606   -6.7372511    4.7090216 0.0067194943 0.0068689143           19 
   58500   0.74214698     -6.70287    4.7146811 0.0067160699 0.0068693097            8 
   58600   0.78902623   -6.7175319    4.7123891 0.0067013496 0.0068697074           17 
   58700   0.78253767   -6.7174548    4.7057705 0.0066805373 0.0068698819            9 
   58800     0.754736   -6.7388296    4.6813566 0.0066345756 0.0068696253           17 
   58900   0.79085271   -6.7648381    4.6910161  0.006636978 0.0068691677           32 
   59000    0.7799536   -6.6766109    4.7226159 0.0066703614 0.0068691214            7 
   59100   0.79015026    -6.678438    4.7038149 0.0066325647 0.0068689933           15 
   59200    0.7658441   -6.6814363    4.6944499 0.0066081783 0.0068684728           23 
   59300   0.79221125   -6.7364813     4.690281 0.0065911762  0.006867647           38 
   59400   0.76957775   -6.7204813    4.6867204 0.0065750847  0.006866703           29 
   59500   0.77209574   -6.7838713    4.7070155 0.0065924586 0.0068655991           12 
   59600   0.78405513   -6.7117662    4.7534905 0.0066463793 0.0068651236           21 
   59700   0.73721776   -6.7187629     4.792534 0.0066897459 0.0068649131           23 
   59800   0.75542961   -6.7039061    4.7712448 0.0066488918 0.0068647092           18 
   59900   0.77684025    -6.714108    4.7284231 0.0065782179 0.0068638778           26 
   60000   0.81204256   -6.7433204    4.7203566 0.0065560508 0.0068628283           28 
   60100    0.7420975   -6.7420958    4.7330276 0.0065627115 0.0068616751           14 
   60200   0.80087207    -6.771455    4.7844089 0.0066229358 0.0068607246           14 
   60300   0.78861412   -6.7454785    4.7880271 0.0066169528  0.006860088           11 
   60400   0.73956409   -6.7453242    4.7912714 0.0066104737 0.0068592477           13 
   60500   0.76503262    -6.726606    4.8114389 0.0066273262 0.0068584478           30 
   60600   0.79584408    -6.666169     4.830691 0.0066428644 0.0068579772           25 
   60700   0.78196645   -6.6768992    4.8260073 0.0066254905 0.0068576714           44 
   60800   0.73957298   -6.6689513    4.8452549 0.0066409743 0.0068573918           59 
   60900   0.78771079   -6.7106204    4.8901522 0.0066915054 0.0068573486           52 
   61000     0.716972   -6.6948213    4.8804996 0.0066673491 0.0068572205           56 
   61100   0.77824127   -6.7196193    4.8979152 0.0066801898 0.0068571266           25 
   61200   0.78556564    -6.654535    4.9354317  0.006720359 0.0068574373            7 
   61300   0.76138082   -6.6983569     4.937957 0.0067128289 0.0068578541           15 
   61400   0.78362209   -6.6807894    4.9329575 0.0066951105 0.0068581551           30 
   61500   0.80334482   -6.7315725    4.9287034 0.0066784599 0.0068584748           61 
   61600   0.78497852    -6.718145    4.9419904  0.006685593 0.0068588721           50 
   61700   0.80338275   -6.7114887    4.9931618 0.0067438705 0.0068594424           84 
   61800   0.74282969   -6.6483429    5.0193483  0.006768269 0.0068603243           98 
   61900   0.78767021   -6.7379915    5.0209666 0.0067595135 0.0068612276           95 
   62000   0.72831735   -6.7067068    5.0469357 0.0067835156 0.0068620999           98 
   62100   0.76742536   -6.6810595    5.0553923 0.0067839403 0.0068633474          121 
   62200   0.80758929   -6.7151854    5.0247983 0.0067320448 0.0068642837          116 
   62300   0.75132239   -6.7408217    5.0220275 0.0067175327 0.0068647268          126 
   62400   0.75828129   -6.7367826    5.0685423 0.0067688866 0.0068653628          129 
   62500   0.78817139   -6.7683888    5.1033826 0.0068045101 0.0068663659          103 
   62600   0.77243506   -6.8054748    5.0708805 0.0067503734 0.0068671251          133 
   62700    0.7525719   -6.7620254     5.043989 0.0067038662 0.0068673451          139 
   62800   0.76804585   -6.7261884    5.0485517 0.0066992458 0.0068673916          185 
   62900   0.77919089   -6.7117951    5.0820341 0.0067329545 0.0068678718          173 
   63000   0.77952662   -6.7997975    5.0945078 0.0067387669 0.0068683866          172 
   63100   0.78150887   -6.7593256    5.1125565 0.0067519235 0.0068691782          175 
   63200   0.79632045   -6.7271987    5.1317278 0.0067665187 0.0068701843          164 
   63300    0.7471086    -6.762861     5.135741 0.0067611123 0.0068710565          203 
   63400   0.77261169   -6.7797661    5.1037108 0.0067083475 0.0068715835          204 
   63500   0.79813744   -6.7500077    5.0757452 0.0066610829 0.0068715445          205 
   63600   0.77675703   -6.7507711    5.0960333 0.0066771924 0.0068714603          250 
   63700   0.76922245   -6.8229404    5.1101442 0.0066851703  0.006871396          290 
   63800   0.73146775   -6.8003694    5.1212757 0.0066892315  0.006871198          256 
   63900   0.76672169   -6.7948427    5.1213212 0.0066788226 0.0068708881          255 
   64000    0.8001049   -6.7597682    5.1008738 0.0066417627 0.0068704715          215 
   64100   0.76876574   -6.8037193     5.072592 0.0065946334  0.006869786          238 
   64200   0.76475988   -6.7226806    5.0699845 0.0065809767 0.0068687954          267 
   64300   0.77449965    -6.809314    5.0972847 0.0066061232 0.0068678535          314 
   64400   0.75951473    -6.786287    5.1155531 0.0066195044 0.0068670329          334 
   64500   0.76656276    -6.825185    5.1550026   0.00666021  0.006866683          344 
   64600   0.77795081   -6.8478989    5.1546867 0.0066494926 0.0068662794          365 
   64700   0.75891344   -6.8120505    5.1378846 0.0066175741 0.0068655883          357 
   64800   0.77177122   -6.7743439    5.1412573 0.0066116992 0.0068648224          368 
   64900   0.75847243    -6.835847    5.1327608 0.0065906019 0.0068639931          344 
   65000   0.76535449    -6.818311    5.1610293 0.0066167041 0.0068631093          327 
   65100   0.79011272   -6.8219549    5.1649556 0.0066115663 0.0068621995          323 
   65200   0.73928127    -6.774225    5.1514273  0.006584135 0.0068610612          339 
   65300   0.76097087   -6.8173803    5.1416155 0.0065615308 0.0068598939          365 
   65400   0.78617828   -6.8131616    5.1442698 0.0065548799 0.0068585746          362 
   65500   0.79942271   -6.8566103    5.1890392 0.0066018309 0.0068573133          366 
   65600    0.7675792   -6.9003177    5.1706303 0.0065683819 0.0068559661          398 
   65700   0.79439166   -6.8770711    5.1896936 0.0065825641 0.0068548411          373 
   65800   0.77367727   -6.8217679    5.1636386 0.0065395626 0.0068535106          399 
   65900   0.76395737   -6.8705997     5.167921 0.0065350543 0.0068519614          390 
   66000   0.78526771   -6.8535713    5.1616456 0.0065172292 0.0068504357          411 
   66100   0.77420354   -6.8336937     5.175086 0.0065243141 0.0068488789          383 
   66200   0.79668492   -6.8863731    5.1770863 0.0065169767 0.0068472063          410 
   66300   0.76001823   -6.8908534    5.1863102 0.0065187408 0.0068454849          405 
   66400    0.7709621    -6.866411    5.1769126 0.0064971293 0.0068437398          398 
   66500    0.7669884   -6.8739947    5.2109689 0.0065300362 0.0068421064          440 
   66600   0.80880555   -6.8589227    5.2342386 0.0065493476 0.0068406701          455 
   66700   0.77336327   -6.8308465    5.2194438 0.0065210442 0.0068392701          419 
   66800   0.76428158   -6.8253751    5.2345643  0.006530145  0.006837859          459 
   66900   0.75413769   -6.8664164    5.2866517 0.0065852662 0.0068367624          453 
   67000   0.77424427   -6.9303226     5.306179 0.0065997251 0.0068356735          498 
   67100   0.72918933   -6.9011908    5.2577804 0.0065297819  0.006834252          522 
   67200   0.73997561   -6.8815476    5.2373964 0.0064947872 0.0068324357          495 
   67300   0.77308356   -6.8861379    5.2104889 0.0064518188  0.006830428          461 
   67400   0.78653305   -6.9123854    5.2399178 0.0064786322 0.0068284169          466 
   67500   0.80622751   -6.9065309    5.2435418 0.0064735083 0.0068264232          473 
   67600   0.76100475   -6.8742041     5.244886 0.0064655893 0.0068243813          466 
   67700   0.80002374   -6.8944278    5.2538036 0.0064670157 0.0068224712          435 
   67800   0.80335302    -6.867159    5.2860072 0.0064970589 0.0068206104          470 
   67900    0.7523844   -6.8719272    5.2764648  0.006475779 0.0068187674          453 
   68000   0.73696826   -6.9262978    5.2975435 0.0064920876  0.006816814          482 
   68100   0.74109674   -6.9516126    5.3021946 0.0064882459 0.0068148072          509 
   68200   0.75833854    -6.899139    5.3158905 0.0064954674  0.006812861          517 
   68300   0.77295742   -6.9510129    5.2779405 0.0064396541 0.0068108756          541 
   68400   0.74180307   -6.9677468    5.2570496 0.0064047875  0.006808463          539 
   68500   0.76645939   -6.9426639    5.2380582 0.0063723336 0.0068057465          560 
   68600   0.80246034   -6.9795802    5.2401275 0.0063655581 0.0068028877          577 
   68700   0.77855312   -6.9950304    5.2282447 0.0063418785 0.0068001077          574 
   68800   0.80718016   -6.9674921    5.2439306   0.00635166 0.0067970283          577 
   68900     0.780701   -6.9753565    5.2449202 0.0063436383 0.0067940713          596 
   69000   0.75688909   -6.9746004    5.2566956 0.0063486661 0.0067910514          593 
   69100   0.78578794   -6.9649652    5.2674815 0.0063524861 0.0067882175          591 
   69200   0.82521567   -6.9236499    5.2361143 0.0063055326 0.0067852573          624 
   69300   0.78106185   -6.9607454     5.261848 0.0063273785 0.0067822107          590 
   69400   0.75360365     -7.00891    5.3068807 0.0063723351 0.0067793144          597 
   69500     0.769739   -6.9826416    5.3090294 0.0063657426 0.0067764099          595 
   69600   0.75617569   -7.0208248    5.3092369  0.006356845 0.0067736243          575 
   69700   0.80113556   -6.9722372    5.3071624 0.0063452443  0.006770573          603 
   69800   0.75142552   -6.9931839    5.3077651 0.0063368733 0.0067677626          619 
   69900   0.77850274   -7.0910222    5.3016082 0.0063204675 0.0067645189          654 
   70000   0.73618963   -7.0548755    5.3057808 0.0063164057 0.0067613132          654 
   70100   0.73435529   -6.9664181    5.3239515  0.006328996  0.006758182          664 
   70200   0.77072316   -7.0153108    5.3449628 0.0063449226 0.0067553054          665 
   70300   0.75894555    -7.082939    5.3375315  0.006327088 0.0067523718          652 
   70400   0.75874272   -7.0148532    5.3469797 0.0063292847 0.0067492579          649 
   70500   0.77987994    -7.008139    5.3817429 0.0063613982 0.0067466061          622 
   70600    0.7826295   -7.0490876    5.3552349 0.0063210988 0.0067439933          639 
   70700   0.76184623   -7.0545713    5.3226193 0.0062737143 0.0067408647          648 
   70800   0.79454166   -7.0117903    5.3289783 0.0062723379 0.0067377903          646 
   70900    0.7527594   -7.0426986    5.3499119 0.0062880958 0.0067345895          633 
   71000   0.73073273   -7.0718678    5.3339682  0.006260526 0.0067310189          638 
   71100   0.77237498   -7.0301588    5.3388181 0.0062574051 0.0067276057          646 
   71200   0.77295105   -6.9925123      5.31741 0.0062235604  0.006724031          635 
   71300   0.78729101    -7.007108    5.3146673 0.0062116261 0.0067203821          623 
   71400   0.76913894   -7.0780357    5.3201738 0.0062093531 0.0067165779          623 
   71500   0.79295913   -7.0443554    5.3368035 0.0062200507 0.0067128391          631 
   71600   0.78259407   -7.0146289    5.2863518 0.0061526441 0.0067087952          618 
   71700   0.78519417   -7.0480554    5.3058594 0.0061667357 0.0067044571          634 
   71800   0.75443331   -7.0441198    5.3211838 0.0061759328 0.0067004264          638 
   71900   0.75840721   -7.1252942    5.2896174 0.0061307572 0.0066961705          630 
   72000   0.74697964   -7.0834278    5.2624644 0.0060908153 0.0066913931          647 
   72100   0.78335065   -7.0236508    5.3198678 0.0061487145 0.0066870355          652 
   72200    0.7523306   -7.0426945      5.30825  0.006126789 0.0066829638          660 
   72300   0.75900541   -7.1524248    5.3137224 0.0061246223 0.0066786417          663 
   72400   0.75300746   -7.0784351    5.3363711 0.0061422318 0.0066744534          662 
   72500    0.7286983   -7.0885968    5.3483726 0.0061475547 0.0066702732          676 
   72600    0.7912264   -7.1162251    5.3573036 0.0061493384 0.0066659835          692 
   72700   0.74758453   -7.1207959    5.3359211 0.0061163699 0.0066617381          678 
   72800   0.79713096   -7.1012844    5.3404652 0.0061131699 0.0066575774          699 
   72900   0.80433337   -7.1253911    5.3556961 0.0061221949  0.006653393          723 
   73000   0.76127413   -7.1720843    5.3407636  0.006096762  0.006649144          738 
   73100   0.78544226   -7.1157956    5.3473567 0.0060959378  0.006644783          773 
   73200   0.76916351   -7.1072266    5.3540066 0.0060951805 0.0066404807          785 
   73300   0.76464977   -7.1080685    5.3523995  0.006085038 0.0066362863          749 
   73400   0.78745019   -7.1306101    5.3579771 0.0060830802 0.0066318511          766 
   73500   0.73226752   -7.1331407    5.3773862 0.0060968097 0.0066273149          760 
   73600   0.78343319   -7.1540926    5.3321167 0.0060372698 0.0066227017          779 
   73700   0.80622197   -7.1873584    5.3040668 0.0059973618 0.0066177068          790 
   73800   0.72917358   -7.1233674    5.2974794  0.005981797 0.0066125514          800 
   73900   0.73889441   -7.1050639    5.3436352 0.0060257501 0.0066076261          771 
   74000   0.78116285   -7.1122015    5.3686035 0.0060457246 0.0066031145          765 
   74100   0.78038187   -7.1620271    5.3842574 0.0060551702 0.0065986869          764 
   74200   0.76929501   -7.1794282    5.3762689 0.0060380378 0.0065942465          788 
   74300   0.82242619   -7.1881649     5.329036 0.0059769358 0.0065895491          806 
   74400   0.75163003   -7.1357429    5.3420425 0.0059834705 0.0065846006          798 
   74500    0.7860152   -7.1494378    5.3468739 0.0059808433 0.0065797139          811 
   74600   0.78073752   -7.2215904    5.3781339 0.0060077456 0.0065750301          820 
   74700   0.76093221   -7.1701857    5.3676317 0.0059879871  0.006570255          811 
   74800   0.80203336   -7.1707424    5.4089217 0.0060259822 0.0065657634          804 
   74900   0.79837418   -7.1726583    5.3911689 0.0059981852 0.0065613353          823 
   75000   0.78904312   -7.2592997    5.3897755 0.0059886394 0.0065566204          819 
   75100   0.76982222    -7.175573    5.3872668 0.0059778815 0.0065519476          811 
   75200   0.79907824   -7.1929827    5.4389258 0.0060271784 0.0065474126          816 
   75300   0.78039541   -7.2511027    5.4285742 0.0060077181 0.0065429368          820 
   75400   0.76077711   -7.2270996    5.4103342 0.0059795912 0.0065383654          821 
   75500   0.79198328   -7.1652727    5.3837106 0.0059422853   0.00653349          812 
   75600   0.78257438   -7.2142752    5.3661646 0.0059150845  0.006528546          823 
   75700   0.75644508   -7.2174461    5.3546529 0.0058945981  0.006523335          832 
   75800   0.79200923   -7.2179484     5.375397 0.0059096273 0.0065181856          831 
   75900   0.78144979   -7.2131558    5.3924531 0.0059205677 0.0065131959          815 
   76000   0.76281702   -7.2178168    5.3819109  0.005901218 0.0065082201          810 
   76100   0.77068336   -7.1327917    5.4126601 0.0059271354 0.0065033153          816 
   76200   0.75444012   -7.2008414    5.3928874 0.0058977333  0.006498324          815 
   76300   0.76947144   -7.2473918     5.358348 0.0058522805 0.0064929563          823 
   76400   0.72363955   -7.2313936    5.3463506 0.0058315342 0.0064874041          823 
   76500   0.76269617   -7.1815712    5.3509427 0.0058289136 0.0064818423          820 
   76600   0.78358116   -7.2130945    5.3477051 0.0058177819  0.006476323          828 
   76700   0.76085995   -7.1945737    5.3553927 0.0058185492  0.006470802          839 
   76800   0.80863336   -7.2283531    5.4102483 0.0058704951 0.0064655642          837 
   76900   0.76739049   -7.2007168    5.4084975 0.0058609639 0.0064604394          830 
   77000    0.7706615   -7.2510825    5.3878022 0.0058309547 0.0064550964          819 
   77100   0.76608607   -7.2269895    5.3548242 0.0057877477 0.0064496077          832 
   77200   0.75667039   -7.2270719    5.3739834 0.0058009319 0.0064439913          809 
   77300   0.76968145   -7.2294815    5.3997512 0.0058212065 0.0064385052          822 
   77400   0.76246732   -7.2244322    5.3408271 0.0057502445  0.006432919          826 
   77500   0.77338386   -7.2371427    5.3268343 0.0057277788 0.0064269015          837 
   77600   0.78429756   -7.1833128    5.3092716 0.0057015374 0.0064207437          837 
   77700   0.77894832   -7.2294289    5.3089007 0.0056938016 0.0064145894          827 
   77800   0.76541643   -7.2565499    5.3012337 0.0056782709 0.0064082439          822 
   77900   0.77982565   -7.1640925    5.3184985 0.0056894507 0.0064021306          827 
   78000    0.7576367   -7.2007719     5.321985 0.0056858813 0.0063960738          837 
[...]
   82800   0.74929001   -7.2737866    5.3484476 0.0053828981 0.0061017047          840 
   82900   0.77506997   -7.2423378    5.3877575 0.0054159202 0.0060952104          829 
   83000   0.79347171   -7.2191736    5.3864863 0.0054081187 0.0060888812          822 
   83100   0.75468843   -7.2434202    5.3838369 0.0053989539 0.0060824138          831 
   83200   0.75938564   -7.2126454    5.3791029 0.0053877232 0.0060759753          833 
   83300   0.78795667   -7.2115005    5.3797444 0.0053818972 0.0060694977          838 
   83400   0.76547588   -7.2351682    5.3498575  0.005345581 0.0060628873          838 
   83500   0.81700491   -7.2303874    5.3490218 0.0053383451 0.0060562339          849 
   83600   0.76770477   -7.1724313    5.3636179  0.005346509 0.0060497116          832 
   83700   0.74777131   -7.2667626    5.3642814 0.0053407819 0.0060430697          835 
   83800    0.7339785   -7.2902558    5.4209892 0.0053908007 0.0060365106          844 
   83900   0.76937035    -7.233263    5.4308583 0.0053941778 0.0060302746          830 
   84000   0.79735994   -7.2062211    5.3920947 0.0053493003 0.0060239441          838 
   84100   0.75008294   -7.1606422    5.4052894 0.0053560141 0.0060176722          822 
   84200   0.73834753   -7.2132285    5.3982505 0.0053426865 0.0060112621          824 
   84300     0.749559   -7.2239798    5.4274248 0.0053651885 0.0060048462          830 
   84400   0.74814477   -7.1622743     5.421248  0.005352733 0.0059986346          831 
   84500   0.78543414     -7.23748    5.4115111 0.0053367959 0.0059922838          821 
   84600    0.7687953   -7.1651092    5.3944607 0.0053136925 0.0059858743          829 
   84700   0.77924087   -7.2534984    5.3892862  0.005302328 0.0059793226          831 
   84800   0.75266193   -7.2421326    5.3957808 0.0053024576 0.0059727042          828 
   84900   0.77227699   -7.1734302    5.3900717 0.0052906082  0.005966095          835 
   85000   0.75108834   -7.2036698    5.3798054  0.005274319 0.0059594173          831 
   85100   0.75556145   -7.2352273     5.386985 0.0052751517 0.0059527429          829 
   85200   0.69584695    -7.247174    5.3337804 0.0052169213 0.0059458387          844 
   85300   0.73255776   -7.2453965    5.3766189 0.0052526562 0.0059388986          840 
   85400   0.76309858   -7.1777467    5.3731715 0.0052431415 0.0059322338          833 
   85500   0.78974136   -7.2167311    5.3853378 0.0052488673 0.0059255458          831 
   85600   0.75921097   -7.2453678    5.3627804 0.0052207753  0.005918797          828 
   85700   0.76724332   -7.2755125    5.3384974 0.0051910709 0.0059119454          842 
   85800   0.78944273   -7.2151326    5.3530326 0.0051991381 0.0059049846          832 
   85900   0.75366053   -7.2314337    5.3619577  0.005201744 0.0058981266          829 
   86000    0.7786489   -7.2612059    5.3890244 0.0052219228 0.0058913553          838 
   86100   0.73809015    -7.280124    5.3601753 0.0051879358 0.0058846331          838 
   86200   0.75467272   -7.2290412    5.3580725 0.0051798844 0.0058777948          837 
   86300   0.77606926    -7.223899    5.3681689 0.0051836316 0.0058709674          832 
   86400   0.81362762   -7.1920506    5.3732556 0.0051825382 0.0058643061          835 
   86500   0.79035897   -7.2467003    5.3631569 0.0051668178 0.0058576218          843 
   86600   0.77314001   -7.2819557    5.3879492 0.0051847086 0.0058508718          837 
   86700   0.77316163    -7.221246    5.3759807 0.0051672248 0.0058441786          829 
   86800    0.7727079   -7.1624887    5.3900391 0.0051747687 0.0058375594          841 
   86900    0.7816883   -7.2506019    5.3816358 0.0051607555 0.0058309681          846 
   87000    0.7308136   -7.2492541    5.3816788 0.0051548647 0.0058242835          837 
   87100   0.76836542   -7.2407428    5.3866748 0.0051537263  0.005817623          843 
   87200    0.7672711   -7.1958348    5.3875894 0.0051486901 0.0058109661          832 
   87300   0.77297598   -7.2124089    5.3870922 0.0051423178  0.005804287          842 
   87400   0.75847094   -7.2263037    5.3711521 0.0051212357  0.005797603          829 
   87500   0.77006579   -7.1895161    5.3594367 0.0051042254 0.0057908744          836 
   87600   0.78163911   -7.2226268    5.3906893 0.0051281291 0.0057841988          840 
   87700   0.77309659   -7.2870596    5.3616526 0.0050946908 0.0057774641          838 
   87800   0.72421866   -7.2559448    5.3481384 0.0050760615 0.0057704956          842 
   87900    0.7542006   -7.2286096    5.3733697 0.0050942071 0.0057636352          837 
   88000     0.760815   -7.2222343    5.4024023 0.0051159113 0.0057569742          831 
   88100   0.78949807   -7.1897036    5.4087561 0.0051161143 0.0057503728          829 
   88200   0.78679395    -7.249246    5.4094031  0.005110925 0.0057439463          825 
   88300   0.77409316   -7.2370393    5.4065948 0.0051024866 0.0057374353          831 
   88400   0.78695694   -7.2045657    5.3939483 0.0050847928 0.0057308895          836 
   88500   0.77737449   -7.2214655    5.4094303 0.0050936255 0.0057244338          837 
   88600   0.74924825   -7.2793401    5.3959978 0.0050752425 0.0057178724          844 
   88700   0.75603265   -7.2677787    5.3964734 0.0050699675 0.0057112599          841 
   88800   0.73374208   -7.1897382    5.3754665 0.0050445443  0.005704445          839 
   88900   0.76174914   -7.2124732    5.3719045  0.005035531 0.0056976295          846 
   89000   0.76423933    -7.224682    5.3419959 0.0050018688 0.0056907593          848 
   89100   0.73986719   -7.2113869    5.3648455 0.0050176257  0.005683864          841 
   89200   0.73893233   -7.2029599    5.3795871 0.0050257727 0.0056770175          835 
   89300   0.75399602   -7.2027817    5.3962219  0.005035668 0.0056702806          832 
   89400   0.74282278   -7.2604106    5.4072703  0.005040334 0.0056635636          838 
   89500   0.71748945   -7.2862063     5.394252  0.005022581  0.005656882          832 
   89600   0.76031023   -7.2372461    5.3520038  0.004977682 0.0056500256          840 
   89700   0.78189993   -7.2059444     5.358449 0.0049781206 0.0056431934          837 
   89800   0.74279869   -7.2237843    5.3643336 0.0049780378 0.0056363921          837 
   89900   0.78166426   -7.2974185    5.3469691 0.0049564044 0.0056294965          845 
   90000   0.75763392   -7.1961221    5.3848038 0.0049859294 0.0056227486          831 
   90100   0.77469528   -7.2046629    5.3694214 0.0049661685 0.0056159781          829 
   90200   0.77832535   -7.2860828    5.3816273 0.0049719394 0.0056091998          836 
   90300   0.74552586   -7.2810252    5.3884584 0.0049727375 0.0056025143          844 
   90400    0.7620146   -7.1923186    5.4152855 0.0049919667 0.0055958877          840 
   90500   0.78444788   -7.2424752    5.4133168 0.0049846379 0.0055894619          841 
   90600   0.74086612   -7.2779413    5.3984004 0.0049654161 0.0055829249          840 
   90700   0.74317406   -7.2707702    5.4028205 0.0049640026 0.0055763418          849 
   90800    0.7440045   -7.2238323    5.3896161 0.0049464171   0.00556969          833 
   90900   0.76856539   -7.2026009    5.3825472  0.004934495 0.0055629369          828 
   91000   0.74658246   -7.2502269    5.3482943 0.0048977054 0.0055562124          838 
   91100    0.7719809   -7.2354799    5.3971974 0.0049370631 0.0055494955          841 
   91200   0.80002245   -7.2195211    5.3759828 0.0049122649  0.005542865          838 
   91300   0.76168601   -7.2161038    5.3641418 0.0048960768 0.0055361996          839 
   91400   0.77483079   -7.1985608    5.3710174 0.0048969888 0.0055294881          827 
   91500   0.78285124   -7.1665288     5.404516 0.0049221457 0.0055229355          830 
   91600   0.78210342   -7.2154425    5.3829099  0.004897116 0.0055164275          842 
   91700   0.77294058   -7.2292782    5.3707536 0.0048807284 0.0055097487          845 
   91800   0.73024132    -7.249058    5.3775883 0.0048816161 0.0055030129          834 
   91900   0.72418791   -7.2181611    5.3601724 0.0048605117  0.005496239          845 
   92000   0.78004415   -7.2119425    5.3932298 0.0048851719  0.005489687          830 
   92100   0.77575832   -7.2019795    5.3961014 0.0048824659 0.0054830796          823 
   92200   0.73263042   -7.2449986    5.4134268 0.0048928297 0.0054765906          833 
   92300   0.78436425   -7.2721245     5.432574 0.0049048158 0.0054701408          828 
   92400   0.73846375   -7.2062297    5.4074401 0.0048768399 0.0054635731          840 
   92500   0.77472461   -7.1905054     5.405884 0.0048701658 0.0054570732          829 
   92600   0.78944545   -7.1974943    5.4100633 0.0048686675 0.0054506261          828 
   92700   0.76524817   -7.2078983    5.3729521  0.004830054 0.0054441103          832 
   92800   0.77516342   -7.2399441    5.3743465 0.0048261014 0.0054373771          833 
   92900   0.76093417   -7.2628641    5.3954304 0.0048398192 0.0054307668          837 
   93000   0.76017197   -7.1808512    5.3897191 0.0048294974 0.0054242146          827 
   93100   0.75781946   -7.2022398    5.4104457 0.0048428623 0.0054176746          839 
   93200   0.73811095   -7.2539085    5.3921145 0.0048212755  0.005411098          820 
   93300   0.75023686   -7.1895998    5.4010269 0.0048240683 0.0054044997          835 
   93400   0.77667758   -7.2020643    5.3528592 0.0047759272 0.0053978073          837 
   93500   0.76394665   -7.2211581    5.3840265 0.0047985976 0.0053910863          848 
   93600   0.73737873   -7.1915548    5.4015313 0.0048090556 0.0053845518          837 
   93700   0.77546751   -7.1843334    5.4196282 0.0048200179 0.0053781167          815 
   93800   0.76721841   -7.2230872    5.3949945 0.0047929944 0.0053716079          832 
   93900   0.79051711   -7.2383991    5.4280612 0.0048172357 0.0053651637          829 
   94000   0.80655865   -7.1658862    5.4336756 0.0048170883 0.0053589151          832 
   94100   0.74932191   -7.1551565    5.3921546 0.0047751989 0.0053525398          833 
   94200   0.75015364   -7.2160466    5.3644946 0.0047456604 0.0053459419          828 
   94300    0.7907901   -7.2426436    5.3715399 0.0047468539 0.0053392987          830 
   94400   0.76429667   -7.2001261    5.3694931 0.0047400186  0.005332598          841 
   94500   0.73231222   -7.2284682    5.3808623 0.0047450284 0.0053258732          824 
   94600   0.74691195   -7.2160365    5.3745328 0.0047344369 0.0053191972          827 
   94700   0.81503898   -7.2290303    5.4026753 0.0047542021 0.0053127077          838 
   94800    0.7902901   -7.2512861    5.3739397 0.0047239272 0.0053061775          844 
   94900   0.71089209   -7.2018558    5.3606025 0.0047072378 0.0052995919          836 
   95000   0.73686644   -7.2698112    5.3803972 0.0047196467 0.0052929562          839 
   95100   0.77775072   -7.2488412     5.406067 0.0047371775 0.0052864748          833 
   95200   0.76972616   -7.1699266    5.3951906 0.0047226809 0.0052800923          825 
   95300      0.77776   -7.2215481     5.415019 0.0047350638 0.0052736906          832 
   95400   0.77260459   -7.2501945    5.4022101 0.0047189116 0.0052672755          839 
   95500   0.79015145   -7.1709393    5.4275064  0.004736044 0.0052608855          827 
   95600    0.7675918   -7.1974663    5.4162498 0.0047212777 0.0052546963          818 
   95700   0.78846843   -7.2848296    5.3867102 0.0046906219  0.005248291          836 
   95800   0.75021028     -7.23294    5.3917752 0.0046901315 0.0052417937          840 
   95900   0.76862282   -7.1882697    5.4151032  0.004705512 0.0052354842          838 
   96000   0.80265458   -7.2298546    5.4317641  0.004715073 0.0052292232          841 
   96100   0.76544508   -7.2534901    5.4287313 0.0047075366 0.0052230146          831 
   96200   0.71117028   -7.2277787    5.4233563 0.0046979871 0.0052167024          827 
   96300   0.77056977   -7.2118847    5.4300788 0.0046989259 0.0052104346          828 
   96400   0.76319537   -7.2658832    5.3678452 0.0046402534 0.0052039826          825 
   96500    0.7457341   -7.2145597    5.3704631 0.0046377056 0.0051974407          834 
   96600   0.77571407   -7.1889613    5.3941411 0.0046533308 0.0051910216          829 
   96700   0.78701941    -7.198685    5.3740506 0.0046312052 0.0051846086          836 
   96800   0.72504489   -7.2167508     5.401535 0.0046500818 0.0051782066          833 
   96900   0.74714696   -7.2511663    5.4049832 0.0046482484 0.0051717588          839 
   97000   0.75200528   -7.1662045    5.4019983  0.004640892 0.0051654107          822 
   97100   0.75182152   -7.2023261    5.3858191 0.0046222271 0.0051589893          829 
   97200   0.77542459   -7.2129851    5.3676954 0.0046019336 0.0051525554          837 
   97300   0.82672917   -7.2040156    5.4349906 0.0046548394 0.0051463181          836 
   97400   0.80310155   -7.2451713    5.4388751 0.0046533839 0.0051402282          834 
   97500   0.75460803   -7.2296963    5.4102988  0.004624187 0.0051340395          836 
   97600   0.76426858   -7.1855717    5.3933524 0.0046049798  0.005127761          832 
   97700   0.81744301   -7.2141804    5.3894495 0.0045969374 0.0051213801          832 
   97800   0.75797508   -7.1913598    5.3855554  0.004588919 0.0051150792          824 
   97900    0.7962589   -7.2658253     5.380095 0.0045795837  0.005108687          832 
   98000   0.76212805   -7.1734296    5.3997297 0.0045916068 0.0051023249          834 
   98100   0.77728329   -7.2539176    5.4186283 0.0046029802 0.0050960463          837 
   98200   0.76739464   -7.2341988    5.4126163  0.004593191 0.0050898585          836 
   98300   0.80193649   -7.2502591    5.3737258 0.0045555492 0.0050835076          843 
   98400   0.75862495   -7.2313964    5.3812788  0.004557316 0.0050770918          830 
   98500   0.79859147    -7.206272    5.4283811  0.004592539 0.0050708763          822 
   98600   0.76409522    -7.213993    5.3763735 0.0045439262 0.0050646053          842 
   98700   0.76185392   -7.2483816    5.3955374 0.0045555027 0.0050582704          838 
   98800   0.77843416   -7.2074404    5.3789676  0.004536916 0.0050518886          841 
   98900   0.73367608   -7.2356394    5.3873495 0.0045393912 0.0050455764          837 
   99000   0.76396007   -7.2453718    5.3687516 0.0045191512 0.0050391992          844 
   99100   0.79234913   -7.2468418    5.3818995  0.004525647 0.0050327703          838 
   99200   0.78979247   -7.1533849    5.3942413 0.0045314526 0.0050264849          832 
   99300   0.78496742   -7.2252508    5.3975296 0.0045296488 0.0050202716          834 
   99400   0.76112912   -7.2359992    5.3949952 0.0045229671 0.0050140935          828 
   99500   0.77054261   -7.2129193    5.4361106 0.0045528564 0.0050079305          831 
   99600   0.75347772   -7.2034204     5.426415 0.0045401732 0.0050018076          828 
   99700   0.75883917   -7.2570854    5.3798671 0.0044967127  0.004995572          844 
   99800   0.76069513   -7.2922319    5.3797291 0.0044920918 0.0049891875          836 
   99900   0.75838279   -7.2017433    5.3768996 0.0044852349 0.0049828614          829 
  100000   0.77583277    -7.229723    5.4006675 0.0045005562 0.0049765763          839 
  100100   0.74014505   -7.2400631    5.4071327 0.0045014424 0.0049704957          840 
  100200   0.75508247   -7.2638977    5.3858265 0.0044792302 0.0049643073          847 
  100300   0.79751181   -7.2499612    5.4014273 0.0044877262 0.0049581404          841 
  100400   0.75414775   -7.2044587    5.3965879 0.0044792396 0.0049519962          835 
  100500   0.75665203   -7.2453203    5.3939709 0.0044726127 0.0049458317          839 
  100600   0.77971222   -7.2692953    5.3804921 0.0044570014 0.0049396115          843 
  100700   0.75346604   -7.1787149    5.4165692 0.0044824307 0.0049335232          842 
  100800   0.77275409   -7.2696745    5.4035233 0.0044671985 0.0049274119          827 
  100900   0.74898393   -7.2396676    5.3951314 0.0044558403 0.0049211915          846 
  101000   0.76778586   -7.2318851    5.3975009 0.0044533835 0.0049150045          839 
  101100   0.73934813   -7.1676916     5.397456 0.0044489416 0.0049089029          844 
  101200   0.76147995   -7.2424512    5.4505041  0.004488228 0.0049029245          838 
  101300   0.77249459   -7.2086533    5.4581651 0.0044900996 0.0048970257          831 
  101400    0.8087599   -7.2088782    5.4237919 0.0044574226  0.004891108          845 
  101500     0.777206    -7.233954     5.379968 0.0044170509  0.004885031          839 
  101600    0.8041135   -7.2246092    5.3394958 0.0043795077 0.0048787934          839 
  101700   0.80757086   -7.1777822    5.3493149 0.0043832472 0.0048725152          838 
  101800   0.74859648   -7.1994499     5.400711 0.0044210142 0.0048662971          833 
  101900   0.75462223   -7.2436059    5.3958047 0.0044126633 0.0048602104          836 
  102000   0.74183165   -7.2360521    5.3695646 0.0043868992 0.0048540235          849 
  102100   0.77523433   -7.2645531    5.3786235 0.0043899963 0.0048477847          844 
  102200   0.77820302   -7.1519853    5.3592713 0.0043699211 0.0048415618          842 
  102300   0.76955766   -7.2142935    5.3956362 0.0043952722 0.0048354076          837 
  102400   0.76011884   -7.2340751    5.3828797 0.0043805987 0.0048292685          830 
  102500   0.76956827   -7.2531375    5.3560283 0.0043544946 0.0048231091          842 
  102600   0.73379468   -7.1938533    5.3502983 0.0043455964 0.0048168385          839 
  102700   0.77324518   -7.1985913    5.3989427 0.0043808363 0.0048107167          823 
  102800   0.78062635   -7.2527562    5.4222709 0.0043954855 0.0048048333          834 
  102900   0.78831398   -7.2073114    5.4100323 0.0043813024 0.0047989791          834 
  103000   0.78483355   -7.2442461    5.4122292 0.0043788262 0.0047931543          834 
  103100   0.77449991   -7.2193247    5.3706178 0.0043409455 0.0047871942          835 
  103200   0.81262223   -7.2187698    5.3806177  0.004344814 0.0047811988          845 
  103300   0.79443418   -7.2353402    5.3835899 0.0043430057 0.0047751795          838 
  103400   0.76883307   -7.2120992    5.4007856  0.004352664 0.0047692568          839 
  103500   0.74214558   -7.2761839    5.3486385 0.0043064722 0.0047631201          841 
  103600   0.76598164   -7.2592401    5.3887754 0.0043346005  0.004756979          835 
  103700   0.75552769   -7.1855908    5.3808945 0.0043240875 0.0047509681          836 
  103800   0.75247046   -7.2458141    5.3883069 0.0043258726 0.0047449602          827 
  103900   0.74583312   -7.2764638    5.3428566 0.0042852555  0.004738763          842 
  104000   0.76075669   -7.2378788    5.3379131 0.0042771739 0.0047325814          843 
Loop time of 194.13 on 12 procs for 100000 steps with 864 atoms

Performance: 89012.453 tau/day, 515.118 timesteps/s
99.4% CPU use with 12 MPI tasks x no OpenMP threads

MPI task timing breakdown:
Section |  min time  |  avg time  |  max time  |%varavg| %total
---------------------------------------------------------------
Pair    | 9.8978     | 10.669     | 11.205     |  14.0 |  5.50
Neigh   | 0.99692    | 1.0293     | 1.0557     |   2.0 |  0.53
Comm    | 7.9976     | 8.6465     | 9.3981     |  16.2 |  4.45
Output  | 2.2419     | 2.2428     | 2.25       |   0.1 |  1.16
Modify  | 169.1      | 169.52     | 169.86     |   1.7 | 87.32
Other   |            | 2.027      |            |       |  1.04

Nlocal:        72.0000 ave          77 max          68 min
Histogram: 1 2 0 1 3 2 2 0 0 1
Nghost:        1634.50 ave        1646 max        1621 min
Histogram: 1 1 1 0 0 4 1 3 0 1
Neighs:        8749.25 ave        9435 max        8153 min
Histogram: 3 0 3 0 1 0 1 0 2 2
FullNghs:      17499.2 ave       18815 max       16452 min
Histogram: 1 2 1 0 3 2 2 0 0 1

Total # of neighbors = 209991
Ave neighs/atom = 243.04514
Neighbor list builds = 4880
Dangerous builds = 0

#clear
#
#next RN
#
#jump SELF



Total wall time: 0:03:14
