
units lj                  # Use reduced LJ style units
atom_style atomic         # Uncharged point particles
atom_modify map hash      # Needed for indexing of clusters etc
                          # Used to be able to find where atoms are in relation to each other.

# Define a lattice with which to populate the simulation cell. With units
# set to 'lj' the second argument to the lattice command is the reduced
# density rho* and the spacings are multiples of that required to acheive
# that density. Also define a simulation cell called 'box' in lattice units
# and fill it with atoms. Here we're creating a box which is ten lattice
# constants in each direction.
lattice fcc 1.0 spacing 1 1 1                 # All equal sizes - gives the right reduced density.
Lattice spacing in x,y,z = 1.5874011 1.5874011 1.5874011

region box block 0 6 0 6 0 6 units lattice # Defines a region, "box", in lattice units
create_box 1 box                              # Creates a simulation box as specified above,
Created orthogonal box = (0.0000000 0.0000000 0.0000000) to (9.5244063 9.5244063 9.5244063)
  2 by 2 by 3 MPI processor grid
                                              # with one type of atom
create_atoms 1 box                            # Creates particles on lattice points
Created 864 atoms
  using lattice units in orthogonal box = (0.0000000 0.0000000 0.0000000) to (9.5244063 9.5244063 9.5244063)
  create_atoms CPU = 0.001 seconds


# Set the mass of the first (and only) atom type.
mass 1 1.0

# Lennard-Jones interactions between particles, 3.5 sigma cut-off. Apply
# long range tail corrections to energy and pressure and set all coefficients
# to unity since we work in reduced units here. Note that this doesn't shift
# the potential such that it goes to zero at the cutoff. That would require
# pair_modify('shift', 'yes').
pair_style lj/cut  3.5      # non-GPU version
pair_modify tail  yes
pair_coeff 1  1  1.0  1.0   # Intearaction between 1 and 1 set with epsilon = 1 and sigma = 1

write_data data.*
System init for write_data ...
Neighbor list info ...
  update every 1 steps, delay 10 steps, check yes
  max neighbors/atom: 2000, page size: 100000
  master list distance cutoff = 3.8
  ghost atom cutoff = 3.8
  binsize = 1.9, bins = 6 6 6
  1 neighbor lists, perpetual/occasional/extra = 1 0 0
  (1) pair lj/cut, perpetual
      attributes: half, newton on
      pair build: half/bin/atomonly/newton
      stencil: half/bin/3d
      bin: standard

#############################
#   M E L T   S Y S T E M   #
#############################

velocity all create 2.4 2750902 mom yes dist gaussian # Assign velocities
                                                    # Temperature 2.4, random number seed, zero linear momentum
						                                                        # Gaussian distribution

timestep 0.002   # simulation timestep
thermo 100       # output thermodynamic data every 100 steps

# Define a fix  in this case with index 1 applied to all
# particles in the simulation. This fix is for simulations
# in the anisotropic NPT ensemble. Note that we use the MTK
# correction.
fix 1 all npt temp 2.4 2.4 0.1 iso 5.68 5.68 0.5 mtk yes tchain 5 pchain 5 # Use NPT ensemble
                                                                         # Set temperature and pressure and damping
                                                                         # Numbers of thermostats in chain and in barostat
run 1000         # run for 10000 steps
Per MPI rank memory allocation (min/avg/max) = 3.633 | 3.633 | 3.634 Mbytes
Step Temp E_pair E_mol TotEng Press Volume 
       0          2.4   -8.3859253            0    -4.790092     -2.24275          864 
     100    1.3007594   -6.4407842            0   -4.4919034    5.3582762    891.69205 
     200    1.5828213   -6.0796178            0   -3.7081338    6.4338598    907.46239 
     300    1.7629056     -5.73851            0   -3.0972122    5.5953229    954.02439 
     400    1.8733232   -5.2785237            0   -2.4717912    6.0585808    994.36537 
     500      2.02574   -4.9360708            0   -1.9009777    5.7478153    1042.8978 
     600    2.2112838   -4.6895875            0   -1.3765009    5.7138268    1079.0368 
     700    2.3146746   -4.4629638            0  -0.99497044    5.6088298    1118.0222 
     800    2.4734008     -4.39503            0   -0.6892229    5.7937797    1123.7282 
     900    2.4206618   -4.2767239            0  -0.64993368    5.5531987    1146.9555 
    1000    2.3618098   -4.2459295            0  -0.70731524    5.7000582    1143.3852 
Loop time of 0.171987 on 12 procs for 1000 steps with 864 atoms

Performance: 1004725.488 tau/day, 5814.384 timesteps/s
99.8% CPU use with 12 MPI tasks x no OpenMP threads

MPI task timing breakdown:
Section |  min time  |  avg time  |  max time  |%varavg| %total
---------------------------------------------------------------
Pair    | 0.06737    | 0.073985   | 0.085325   |   1.9 | 43.02
Neigh   | 0.011792   | 0.01253    | 0.013993   |   0.6 |  7.29
Comm    | 0.056128   | 0.068978   | 0.07593    |   2.2 | 40.11
Output  | 0.00020583 | 0.00021259 | 0.00026546 |   0.0 |  0.12
Modify  | 0.014431   | 0.014803   | 0.015106   |   0.2 |  8.61
Other   |            | 0.001479   |            |       |  0.86

Nlocal:        72.0000 ave          80 max          66 min
Histogram: 2 1 2 2 1 0 2 0 0 2
Nghost:        1314.75 ave        1327 max        1295 min
Histogram: 1 0 0 2 3 0 0 1 2 3
Neighs:        6211.67 ave        7136 max        5326 min
Histogram: 2 0 0 2 1 4 1 0 0 2

Total # of neighbors = 74540
Ave neighs/atom = 86.273148
Neighbor list builds = 80
Dangerous builds = 2

# Equilibrate just above the melting temperature to avoid step fn in T

fix 1 all npt temp 1.25 1.25 0.1 iso 5.68 5.68 0.5 mtk yes tchain 5 pchain 5
run 1000
Per MPI rank memory allocation (min/avg/max) = 3.634 | 3.634 | 3.634 Mbytes
Step Temp E_pair E_mol TotEng Press Volume 
    1000    2.3618098   -4.2459295            0  -0.70731524    5.7000582    1143.3852 
    1100    1.8617945   -4.5967525            0    -1.807293    5.9593679    1083.5566 
    1200      1.66126   -5.0091582            0   -2.5201524    5.9308167    1028.0056 
    1300    1.4533368   -5.3154554            0   -3.1379734    5.5185254    997.93023 
    1400    1.3100587   -5.5224566            0    -3.559643    5.2858775     978.0358 
    1500    1.3306301   -5.7450087            0   -3.7513736    5.2687861    956.68836 
    1600    1.2302857    -5.777427            0   -3.9341343     5.385203    950.58576 
    1700    1.2545134   -5.8251615            0   -3.9455694    5.6370291    940.07281 
    1800    1.2669685   -5.8434457            0   -3.9451925    6.1076728    931.13358 
    1900    1.2975362   -5.8185374            0   -3.8744858    5.5765884    942.23221 
    2000    1.2225624   -5.8503078            0   -4.0185867    5.1330896    948.19804 
Loop time of 0.173069 on 12 procs for 1000 steps with 864 atoms

Performance: 998444.323 tau/day, 5778.034 timesteps/s
99.8% CPU use with 12 MPI tasks x no OpenMP threads

MPI task timing breakdown:
Section |  min time  |  avg time  |  max time  |%varavg| %total
---------------------------------------------------------------
Pair    | 0.070056   | 0.077019   | 0.092953   |   2.2 | 44.50
Neigh   | 0.0098425  | 0.010587   | 0.012292   |   0.6 |  6.12
Comm    | 0.051244   | 0.068624   | 0.075889   |   2.5 | 39.65
Output  | 0.00018853 | 0.00019665 | 0.00026036 |   0.0 |  0.11
Modify  | 0.014211   | 0.014793   | 0.015154   |   0.2 |  8.55
Other   |            | 0.001849   |            |       |  1.07

Nlocal:        72.0000 ave          79 max          65 min
Histogram: 1 1 0 4 0 1 1 3 0 1
Nghost:        1466.08 ave        1476 max        1447 min
Histogram: 1 1 0 0 2 0 0 4 1 3
Neighs:        7466.67 ave        8131 max        6694 min
Histogram: 1 0 2 0 3 1 3 0 0 2

Total # of neighbors = 89600
Ave neighs/atom = 103.70370
Neighbor list builds = 67
Dangerous builds = 0


# Small amount of linear quench

fix 1 all npt temp 1.25 ${temp} 0.1 iso 5.68 5.68 0.5 mtk yes tchain 5 pchain 5
fix 1 all npt temp 1.25 0.53 0.1 iso 5.68 5.68 0.5 mtk yes tchain 5 pchain 5
run 2000
Per MPI rank memory allocation (min/avg/max) = 3.634 | 3.634 | 3.634 Mbytes
Step Temp E_pair E_mol TotEng Press Volume 
    2000    1.2225624   -5.8503078            0   -4.0185867    5.1330896    948.19804 
    2100    1.2327229   -5.8722346            0   -4.0252903     5.384733    940.74455 
    2200    1.2022315   -5.9247016            0   -4.1234415    5.7081926    929.15452 
    2300    1.1725232   -5.9409945            0   -4.1842454    6.3201322    917.01522 
    2400    1.1473619   -6.0062245            0   -4.2871735    5.8500307    919.16615 
    2500    1.0598076   -6.0331673            0   -4.4452959    5.9735309    912.44057 
    2600    1.0499767   -6.1212136            0   -4.5480714    5.7447408    908.83823 
    2700    1.0566332   -6.2285741            0   -4.6454587    5.4323832    905.86416 
    2800   0.96353612   -6.2149506            0   -4.7713193     5.765641    900.04447 
    2900   0.93527689    -6.267892            0   -4.8666004     5.893383    893.02341 
    3000   0.90365581   -6.3137663            0   -4.9598515    5.9241602     888.9745 
    3100   0.86989045   -6.3458717            0   -5.0425463    5.9665683    884.70441 
    3200   0.87122051    -6.457939            0   -5.1526208    5.6790088    880.73767 
    3300   0.79515986   -6.5002591            0   -5.3088998     5.468532    879.16591 
    3400   0.78166157   -6.5887197            0   -5.4175844    5.3694142    873.89505 
    3500   0.75252423   -6.6704145            0   -5.5429346    5.4512111    866.90366 
    3600   0.70652514   -6.6879225            0   -5.6293614    5.7570791    859.18732 
    3700   0.70134323   -6.7967687            0   -5.7459715    5.7091763    852.23426 
    3800   0.62289974   -6.7860625            0   -5.8527943    6.1778006     846.6833 
    3900   0.60811839    -6.844768            0   -5.9336462    6.0571762    843.38668 
    4000   0.55596831   -6.8850258            0   -6.0520386     5.993295    840.96361 
Loop time of 0.358094 on 12 procs for 2000 steps with 864 atoms

Performance: 965110.454 tau/day, 5585.130 timesteps/s
99.9% CPU use with 12 MPI tasks x no OpenMP threads

MPI task timing breakdown:
Section |  min time  |  avg time  |  max time  |%varavg| %total
---------------------------------------------------------------
Pair    | 0.15327    | 0.16993    | 0.19767    |   2.8 | 47.45
Neigh   | 0.016322   | 0.017343   | 0.019332   |   0.6 |  4.84
Comm    | 0.10681    | 0.13625    | 0.1532     |   3.2 | 38.05
Output  | 0.00038489 | 0.00039977 | 0.00052366 |   0.0 |  0.11
Modify  | 0.028396   | 0.029492   | 0.030147   |   0.3 |  8.24
Other   |            | 0.004686   |            |       |  1.31

Nlocal:        72.0000 ave          74 max          70 min
Histogram: 1 0 2 0 0 6 0 2 0 1
Nghost:        1603.83 ave        1613 max        1585 min
Histogram: 1 0 1 0 1 1 1 1 4 2
Neighs:        8497.33 ave        9110 max        7718 min
Histogram: 1 1 1 1 0 3 0 2 1 2

Total # of neighbors = 101968
Ave neighs/atom = 118.01852
Neighbor list builds = 104
Dangerous builds = 0

#############################
# F R E E Z E  S Y S T E M  #
#############################

# Define solid atoms. This closely follows ten Wolde  Ruiz-Montero and Frenkel  Faraday Discuss  1996  104  93-110
# Compute components of the per-atom q6 vector
compute q6 all orientorder/atom degrees 1 6 components 6 nnn NULL cutoff 1.3 # compute the Q6 parameter.
                                                                             # Use all neighbours within 1.3 unit cell.

# get number of connections
compute coord_number all coord/atom orientorder q6 0.5

# An atom is solid if it has 8 or more connections (of a possible 14)
variable is_solid atom c_coord_number>=8
group solid dynamic all var is_solid    # Must be dynamic to update
dynamic group solid defined

# do clustering
compute cluster solid cluster/atom 1.3 # Create a cluster where all atoms within are solid and max 1.3 units from another member

# define chunks one chunk per cluster
compute clus_chunks solid chunk/atom c_cluster nchunk every compress yes  # Says which atoms are in which chunk

# count the size of each chunk
compute size_chunks solid property/chunk clus_chunks count


# Find the maximum entry in the vector of chunk sizes
variable max_n equal max(c_size_chunks)


# Thermo style which includes this variable
# thermo_style custom step temp pe vol v_max_n

thermo ${N}  # Print the thermo information every 100 steps
thermo 100  

# Reset the npt fix at a lower temperature (below freezing)

compute myRDF all rdf 100
fix 2 all ave/time 1 50 100 c_myRDF[*] file pcf.rdf mode vector


compute msd all msd com yes
variable twopoint equal c_msd[4]/6/(step*dt+1.0e-6)
fix 9 all vector 10 c_msd[4]
variable fit equal slope(f_9)/6/(10*dt)
thermo_style custom step temp pe c_msd[4] v_twopoint v_fit v_max_n


fix 1  all npt temp  ${temp} ${temp}  0.1  iso  5.68  5.68  0.5  mtk yes tchain  5  pchain  5
fix 1  all npt temp  0.53 ${temp}  0.1  iso  5.68  5.68  0.5  mtk yes tchain  5  pchain  5
fix 1  all npt temp  0.53 0.53  0.1  iso  5.68  5.68  0.5  mtk yes tchain  5  pchain  5

dump dmp2 all dcd ${N} traj.dcd
dump dmp2 all dcd 100 traj.dcd
dump dmp3 all dcd ${N} traj_unwrap.dcd
dump dmp3 all dcd 100 traj_unwrap.dcd
dump_modify dmp3 unwrap yes


# fix rnuntil all halt ${N} v_max_n >= 3980 error soft message no   # Stop when solidified

run 100000 # 5000000  # Run for this many steps
Neighbor list info ...
  update every 1 steps, delay 10 steps, check yes
  max neighbors/atom: 2000, page size: 100000
  master list distance cutoff = 3.8
  ghost atom cutoff = 3.8
  binsize = 1.9, bins = 5 5 5
  5 neighbor lists, perpetual/occasional/extra = 1 4 0
  (1) pair lj/cut, perpetual
      attributes: half, newton on
      pair build: half/bin/atomonly/newton
      stencil: half/bin/3d
      bin: standard
  (2) compute orientorder/atom, occasional
      attributes: full, newton on
      pair build: full/bin/atomonly
      stencil: full/bin/3d
      bin: standard
  (3) compute coord/atom, occasional
      attributes: full, newton on
      pair build: full/bin/atomonly
      stencil: full/bin/3d
      bin: standard
  (4) compute cluster/atom, occasional
      attributes: full, newton on
      pair build: full/bin/atomonly
      stencil: full/bin/3d
      bin: standard
  (5) compute rdf, occasional, copy from (1)
      attributes: half, newton on
      pair build: copy
      stencil: none
      bin: none
Per MPI rank memory allocation (min/avg/max) = 9.705 | 9.706 | 9.707 Mbytes
Step Temp PotEng c_msd[4] v_twopoint v_fit v_max_n 
    4000   0.55596831   -6.8850258 7.8977394e-31 1.6453622e-32 8.3333333e+20           21 
    4100   0.55063844   -6.9805107  0.024516468 0.00049830214  0.022135758           11 
    4200   0.51779262    -6.970492  0.036721637 0.00072860382  0.016453174            7 
    4300    0.5318421   -6.9589237  0.044745553 0.00086716177    0.0121199           10 
    4400   0.52164175   -6.9567498  0.058573587 0.0011093481  0.010905877           12 
    4500   0.52107141   -6.9873314  0.071264827 0.0013197189  0.010664392            8 
    4600   0.51517892   -6.9836893  0.077806899 0.0014095451  0.010292599           10 
    4700   0.56055935    -7.002759  0.080732025 0.0014314187 0.0093760518           17 
    4800   0.53190575   -6.9818384  0.089610738 0.0015557418   0.00867339           19 
    4900   0.53984777   -7.0154463  0.093132523 0.0015838863 0.0081173336           16 
    5000   0.54000355   -7.0360056  0.098096221 0.0016349369 0.0075827731           12 
    5100   0.52554759   -7.0214777  0.099777328 0.0016303483  0.007070943           14 
    5200   0.53121056    -7.017488   0.10026613 0.0016068289 0.0065289076           20 
    5300   0.50858754   -7.0746207   0.10360616 0.0016290275 0.0060465375            8 
    5400   0.52247542   -7.0309658   0.10391228 0.0016035843 0.0056036595            7 
    5500   0.54101154   -7.0310202   0.10760149 0.0016303254 0.0052315245           17 
    5600   0.52935077   -7.0133774   0.11219353 0.0016695465 0.0049358239           15 
    5700    0.5109261    -7.010309   0.11772024 0.0017210559 0.0047269695           26 
    5800   0.51135792   -7.0563304   0.12372242 0.0017776208 0.0045700654           31 
    5900   0.53092946   -7.0354144   0.13215664  0.001866619 0.0044846324            8 
    6000   0.51574334   -7.0505392     0.142634 0.0019810276 0.0044740546            6 
    6100   0.54474795   -7.0502562   0.15135133 0.0020676409 0.0045258326            5 
    6200   0.53121879   -7.0639525   0.16316979 0.0021931422 0.0045962505           19 
    6300   0.54850932   -7.0704553   0.16953915 0.0022425811 0.0046924496           19 
    6400   0.57544235   -7.0756553   0.17267826 0.0022484146 0.0047574886           34 
    6500   0.53236081   -7.0806818     0.177698 0.0022781793 0.0047916582           21 
    6600   0.52427836   -7.0615785   0.18212464 0.0022995534 0.0048077754            8 
    6700   0.56556484   -7.0440655   0.18704636  0.002326447 0.0048133858           11 
    6800   0.53742131   -7.0587103   0.19137107 0.0023452335  0.004816199           20 
    6900   0.50360893   -7.0566988   0.19111966 0.0023082083  0.004793212           11 
    7000   0.54666137   -7.0569947   0.18854943 0.0022446359 0.0047335231           17 
    7100   0.52449988   -7.0941296   0.18921421 0.0022208239 0.0046527066           12 
    7200   0.50537659   -7.0856245    0.1876828 0.0021722545 0.0045493246            9 
    7300   0.55057491   -7.0832823   0.19627128 0.0022405396 0.0044654778           21 
    7400   0.54380458   -7.0547762     0.205489 0.0023140652 0.0044086144           20 
    7500   0.53355596   -7.0313116   0.21630511   0.00240339 0.0043827834           30 
    7600   0.54394166   -7.0841424    0.2270051 0.0024890908  0.004385562           12 
    7700   0.51256449   -7.0556362   0.22245108  0.002407479 0.0043710638           24 
    7800   0.50828107   -7.1054471   0.21956394 0.0023457685 0.0043281682           18 
    7900   0.52034439   -7.0185138   0.22174633 0.0023390961 0.0042754979            7 
    8000   0.52715681   -7.0900146    0.2197785 0.0022893593 0.0042173129            9 
    8100   0.55311757   -7.0905123   0.21669756 0.0022293986 0.0041422917           12 
    8200   0.54363236   -7.0788299   0.22061519 0.0022420241 0.0040675385           19 
    8300   0.52786913   -7.1322942    0.2243683 0.0022526937  0.004001704           16 
    8400   0.53843565   -7.1105453    0.2220909 0.0022032826 0.0039317846           18 
    8500      0.52824   -7.0994216   0.22529802  0.002208804 0.0038628634           22 
    8600   0.52938433   -7.0480342   0.22839303 0.0022131106 0.0037948572           17 
    8700   0.54056805   -7.0631696   0.23619182 0.0022623736 0.0037369728           19 
    8800   0.52220855     -7.05412   0.24137497 0.0022857477 0.0036952301           14 
    8900   0.52247407   -7.1055313    0.2369581 0.0022187087 0.0036477061           28 
    9000   0.51980803   -7.1069083   0.23732893   0.00219749 0.0035904255           23 
    9100   0.52224887   -7.0824816   0.24003377 0.0021981113 0.0035357249           16 
    9200    0.5432801   -7.0465474   0.24292712 0.0022004267 0.0034843976           11 
    9300    0.5207481   -7.0990595   0.25177681 0.0022560645 0.0034438606           23 
    9400   0.53100592   -7.1382047   0.25462033 0.0022572723 0.0034085108           15 
    9500   0.53607177   -7.0902887   0.26151036 0.0022939504 0.0033781744           13 
    9600   0.52883674   -7.0929119    0.2669525 0.0023172959 0.0033550206           11 
    9700   0.52527388   -7.1015577   0.26129223 0.0022447785 0.0033268784           15 
    9800   0.52868972   -7.1146234   0.26152754 0.0022238735 0.0032916102           13 
    9900   0.53667218   -7.0752407   0.25518263 0.0021480018 0.0032514692           11 
   10000   0.51516144    -7.095619   0.25224829 0.0021020689 0.0032006808           16 
   10100   0.54034898   -7.0902234   0.25227252 0.0020814563 0.0031514161           16 
   10200   0.52899816   -7.1223005   0.25404638 0.0020755422 0.0031005048           25 
   10300   0.52594415    -7.082472   0.25753393 0.0020836078 0.0030550048           30 
   10400    0.5362404   -7.0730089   0.25708997 0.0020600157 0.0030096461           19 
   10500   0.51935526   -7.0912629    0.2634278 0.0020906967 0.0029679588           18 
   10600   0.51826127   -7.1195111   0.26377762 0.0020737233  0.002930564            9 
   10700   0.53436971   -7.0750593   0.26555505 0.0020681857 0.0028922453           14 
   10800    0.5328165   -7.1034517   0.26956181 0.0020799521 0.0028583906           26 
   10900   0.54052928   -7.0957607   0.26684177 0.0020400746 0.0028229685           26 
   11000    0.5071063   -7.1312108    0.2700052 0.0020454939 0.0027883108           28 
   11100   0.52193247   -7.0609698   0.26906781 0.0020200285   0.00275426           39 
   11200   0.53454841   -7.1222615   0.27251176 0.0020276172 0.0027208756           22 
   11300   0.52138218   -7.0967448   0.27318605 0.0020146463 0.0026886233           42 
   11400   0.53888428   -7.1045015   0.27500405 0.0020102634 0.0026566607           14 
   11500   0.52290856    -7.102068   0.27905281 0.0020221217  0.002628314           42 
   11600   0.52620346   -7.1489432   0.28445214 0.0020434779 0.0026036973           45 
   11700   0.52934305   -7.0911649    0.2868299 0.0020429479 0.0025793692           38 
   11800    0.5566474   -7.1258644   0.28807529 0.0020344299 0.0025580247           25 
   11900   0.54123888   -7.1176235   0.29227324 0.0020467313 0.0025368308           29 
   12000   0.51815452   -7.1125818   0.29422768 0.0020432477 0.0025182698           38 
   12100   0.52528827   -7.0799567   0.30325253  0.002088516 0.0025023485           44 
   12200    0.5267398   -7.0598871   0.30125352 0.0020577426 0.0024870762           41 
   12300   0.50243184    -7.109217   0.29723734 0.0020138031 0.0024698114           30 
   12400   0.50180143       -7.111    0.2941602  0.001976883 0.0024472833           41 
   12500   0.53186948    -7.129216    0.3049395 0.0020329299 0.0024278336           62 
   12600   0.52600197   -7.1026047    0.3110918 0.0020574853 0.0024143144           41 
   12700   0.52071905   -7.1265498   0.31508725 0.0020675016 0.0024026283           58 
   12800   0.51184413   -7.1198782   0.31978921 0.0020819609 0.0023935311           48 
   12900   0.53230508   -7.0900752   0.32577145 0.0021044666 0.0023848232           49 
   13000   0.51434203   -7.1236974   0.32990958 0.0021148049  0.002379418           54 
   13100   0.53073152    -7.106055   0.32897395 0.0020927095 0.0023739218           44 
   13200   0.52949335   -7.1013656   0.32690904 0.0020638196 0.0023654889           42 
   13300   0.51412226   -7.1064742   0.33085515 0.0020730272 0.0023565474           48 
   13400   0.54218385   -7.1148161   0.32977424 0.0020508347 0.0023467985           64 
   13500   0.54335994   -7.0756601   0.33248546 0.0020523793   0.00233725           59 
   13600   0.52644614   -7.1143656   0.34120517 0.0020907179 0.0023295783           49 
   13700   0.52155397   -7.1077241    0.3417186 0.0020785802 0.0023236348           63 
   13800   0.54548124   -7.1358874   0.34276334 0.0020698268 0.0023165608           49 
   13900   0.55443114   -7.0758086   0.34022112 0.0020396949 0.0023085482           55 
   14000   0.54202469   -7.1252425   0.34253614 0.0020389055 0.0022995298           51 
   14100   0.53272256   -7.1141922   0.33908662 0.0020040579  0.002289897           52 
   14200   0.53228011   -7.1074869   0.34194785 0.0020067361 0.0022794647           50 
   14300   0.51291281    -7.063761   0.34324277 0.0020002492  0.002267603           47 
   14400   0.52225243   -7.0977314   0.34915216 0.0020205564 0.0022584006           43 
   14500   0.51206602   -7.1280898   0.34989501 0.0020108908 0.0022490276           53 
   14600   0.52957254   -7.0972206   0.35698184 0.0020375675  0.002240827           48 
   14700   0.52039463   -7.0952397   0.35630175 0.0020198511 0.0022341957           55 
   14800    0.5054155    -7.113105   0.34356103 0.0019344652  0.002222966           29 
   14900   0.52419234   -7.1526206   0.33711143 0.0018854106 0.0022067393           35 
   15000   0.55099886   -7.1083441   0.33836703 0.0018798168 0.0021900684           27 
   15100   0.54436936   -7.1133859   0.33034351 0.0018230878 0.0021721966           21 
   15200   0.54292604   -7.1130342   0.33430828 0.0018328304 0.0021523523           39 
   15300   0.52768819   -7.1256131   0.34205118 0.0018630238 0.0021365103           32 
   15400   0.51014369   -7.0746622   0.34308418 0.0018565161 0.0021207845           25 
   15500   0.52923892   -7.0932986   0.34316304 0.0018449625 0.0021057274           28 
   15600   0.54379929   -7.1384055   0.34278453 0.0018311139  0.002090359           38 
   15700    0.5280499   -7.1458961    0.3477291 0.0018456958 0.0020753416           29 
   15800    0.5255509   -7.1001149   0.35482403 0.0018714347 0.0020630261           32 
   15900    0.5340137     -7.10471   0.36152024 0.0018947601 0.0020521883           29 
   16000   0.55682897   -7.1478824   0.35995811 0.0018747817 0.0020421938           36 
   16100   0.54592915   -7.1689946   0.36247065  0.001876142 0.0020321893           60 
   16200   0.55886629   -7.1337688   0.36502311 0.0018776909 0.0020226112           29 
   16300   0.53918715   -7.1335559   0.37431711 0.0019136866 0.0020144492           22 
   16400   0.50972375     -7.13233   0.37320053 0.0018963441 0.0020072836           28 
   16500   0.54203848   -7.1127478   0.37124192 0.0018749591 0.0019991678           69 
   16600   0.52000035   -7.1452987   0.36706674 0.0018427044 0.0019898152           31 
   16700   0.51613604   -7.1074091   0.37178774 0.0018552282 0.0019801177           36 
   16800    0.5405799   -7.1122685   0.37721244 0.0018710934 0.0019719134           24 
   16900   0.51841857    -7.120291   0.38510273 0.0018989286 0.0019650065           56 
   17000      0.54034   -7.1433063   0.38959115 0.0019097605 0.0019603672           66 
   17100   0.52680412   -7.1728318   0.38708018 0.0018863556 0.0019542891           79 
   17200   0.54594945   -7.1207718   0.38032484 0.0018426591 0.0019474804           82 
   17300   0.54326728   -7.1046957   0.37765411  0.001819143 0.0019385662           93 
   17400   0.52883607   -7.1347833   0.37366011 0.0017895598 0.0019284526           58 
   17500   0.54669155   -7.1512956   0.37643875 0.0017925654 0.0019182015           49 
   17600   0.53893488   -7.1585548     0.386739 0.0018311505 0.0019097107           71 
   17700   0.52668216   -7.0850126   0.39288783 0.0018497543 0.0019029062           32 
   17800   0.51095732   -7.1081741   0.39180538 0.0018342948  0.001896505           32 
   17900   0.53263027   -7.1211315   0.38070385 0.0017723643 0.0018880404           26 
   18000   0.53196902   -7.0975938   0.37793255 0.0017496877 0.0018774706           17 
   18100   0.48598093   -7.0986938   0.38460643 0.0017707478 0.0018673917           38 
   18200   0.51072708   -7.1557535   0.39491641 0.0018082253 0.0018590074           19 
   18300   0.52409264   -7.1014846   0.40455558 0.0018422385 0.0018535053           31 
   18400   0.52837643   -7.1319102   0.41444891 0.0018770331 0.0018497103           18 
   18500   0.54243456   -7.0725854    0.4093084 0.0018437315 0.0018461728           32 
   18600   0.53374207   -7.1368815   0.40650139 0.0018212428 0.0018411549           22 
   18700   0.54991447   -7.1130156   0.40396613 0.0018002055 0.0018357834           26 
   18800    0.5352044   -7.1065245   0.39415283 0.0017471313  0.001827777           31 
   18900   0.52976384   -7.1223742   0.39405756 0.0017374672 0.0018187663           21 
   19000   0.50558292   -7.1213304   0.40160556 0.0017614278 0.0018108619           24 
   19100   0.50649376   -7.1204446   0.40317455 0.0017590512 0.0018038057           48 
   19200   0.52440386   -7.1125536   0.40844563 0.0017727675 0.0017968159           37 
   19300   0.53642795   -7.0727743   0.41029837 0.0017715819 0.0017905663           64 
   19400   0.54855334    -7.091749   0.41362031 0.0017767195 0.0017850193           38 
   19500     0.524646   -7.1281624   0.41841511 0.0017880987 0.0017794685           41 
   19600   0.54609314   -7.1152258   0.41809381 0.0017776097 0.0017746641           18 
   19700   0.54565007   -7.0899192   0.41893479 0.0017721438 0.0017695117           33 
   19800   0.53287567    -7.115932    0.4189094 0.0017630867 0.0017643674           42 
   19900   0.53780776   -7.1144306   0.42085432 0.0017623715 0.0017588041           44 
   20000   0.49639154   -7.1315401   0.43055985 0.0017939994 0.0017544322           33 
   20100   0.54720341   -7.0950477    0.4341502 0.0017999593 0.0017509782           53 
   20200    0.5304557   -7.1393379   0.44301585 0.0018276231 0.0017486931           70 
   20300   0.51765756   -7.1325049   0.44194672 0.0018142311 0.0017466822           51 
   20400   0.52332978   -7.1089579   0.44286357 0.0018090831 0.0017441234           50 
   20500   0.54541236   -7.1237024   0.44740118 0.0018187039 0.0017420685           35 
   20600   0.51104362   -7.1147072   0.44807798 0.0018126131 0.0017400552           39 
   20700   0.53010857   -7.1184932   0.45130094 0.0018168314  0.001738226           29 
   20800   0.52569988   -7.1118722   0.45003748 0.0018030347 0.0017358867           27 
   20900   0.50830592   -7.1284247    0.4609565 0.0018379445 0.0017345199           55 
   21000   0.50434029   -7.1565186   0.45605072  0.001809725  0.001733346           38 
   21100     0.545476    -7.103406   0.45763452 0.0018074033  0.001731386           45 
   21200   0.52158685   -7.1171249   0.46169052 0.0018148212 0.0017298529           36 
   21300   0.53183504    -7.112137   0.46325833 0.0018124347 0.0017280281           29 
   21400   0.55530542   -7.1095244   0.46009529 0.0017916483 0.0017260449           29 
   21500   0.53894074   -7.1269592   0.45968453 0.0017817229 0.0017236225           38 
   21600   0.53540538   -7.1624172   0.46856541 0.0018077369 0.0017219056           33 
   21700   0.53990065   -7.1159174   0.46605799 0.0017897772 0.0017198564           42 
   21800   0.54661773   -7.1019286   0.46713583 0.0017856874 0.0017178374           45 
   21900   0.52111626   -7.1631663   0.46493455 0.0017691573 0.0017152666           49 
   22000   0.52779447   -7.1117898   0.46429743 0.0017587023 0.0017121677           51 
   22100   0.56456837   -7.1240846   0.45758869 0.0017254475 0.0017084073           48 
   22200   0.54226936   -7.0863145   0.44786099 0.0016811598 0.0017030936           48 
   22300   0.52203109   -7.1418171   0.45236771 0.0016904623 0.0016975596           50 
   22400   0.53734144   -7.1265484   0.45172573 0.0016805272 0.0016919857           33 
   22500   0.54449113   -7.1222263   0.45259688 0.0016762847 0.0016862948           29 
   22600   0.54246377   -7.1151672   0.45503467 0.0016778564 0.0016806847           49 
   22700   0.52376559   -7.1203409   0.45224207 0.0016602131 0.0016752347           56 
   22800   0.55097705   -7.1074186   0.45954435 0.0016796211 0.0016696984           45 
   22900    0.5353481   -7.1475536   0.46068619 0.0016764417 0.0016650019           46 
   23000   0.50966533   -7.1204436   0.46455449 0.0016831684 0.0016604109           39 
   23100   0.55874003   -7.1355877   0.45996023 0.0016593082 0.0016554925           40 
   23200   0.52709755    -7.159743     0.459564 0.0016507327 0.0016499997           61 
   23300   0.52391068     -7.10925   0.45498261 0.0016272625 0.0016441648           49 
   23400   0.53905233   -7.1191876   0.45705688 0.0016276954 0.0016380712           29 
   23500   0.56382614   -7.0943707   0.46575459  0.001651612 0.0016327913           42 
   23600   0.51279821   -7.1006209   0.46892957 0.0016558247   0.00162815           29 
   23700   0.53017599   -7.0901389     0.463879 0.0016310794 0.0016230897           29 
   23800   0.51749821   -7.1149416   0.46673599 0.0016342296 0.0016178603           31 
   23900   0.52717842   -7.1521256   0.46444614 0.0016194077 0.0016126375           25 
   24000    0.5175926   -7.1145035   0.46482894 0.0016139893 0.0016069622           44 
   24100   0.51764249   -7.1006926   0.47413008 0.0016394539  0.001602329           22 
   24200   0.51859599   -7.0961716   0.46771108 0.0016105753 0.0015974264           19 
   24300    0.5432915   -7.1033678   0.46215279 0.0015848861 0.0015917685           18 
   24400   0.49838888   -7.1209952   0.46370028 0.0015836758  0.001585785           13 
   24500   0.53027071   -7.1338888   0.46220485 0.0015721253 0.0015798505           17 
   24600   0.53496183   -7.1197074   0.46696745  0.001581868 0.0015739833           27 
   24700   0.54494507   -7.0752861   0.45816402 0.0015457625 0.0015677767           32 
   24800    0.5304749   -7.1276227   0.46080997 0.0015484206 0.0015613541           39 
   24900   0.51049671   -7.1350007   0.46143853 0.0015443056 0.0015549584           49 
   25000   0.53104038   -7.0528017   0.46621603 0.0015540534  0.001548999           44 
   25100   0.53564112   -7.1485878   0.46996922 0.0015603228 0.0015433921           56 
   25200   0.52857594   -7.1515485    0.4741744  0.001568037 0.0015380455           63 
   25300   0.53374219   -7.1230691   0.47466806 0.0015634653 0.0015330984           40 
   25400   0.52890229   -7.1300898   0.47652588 0.0015634051 0.0015280017           48 
   25500   0.53124164   -7.1381527   0.47365182 0.0015478817  0.001522807           38 
   25600   0.52499888   -7.1374491    0.4762266 0.0015502168   0.00151766           31 
   25700   0.52747101   -7.1375173   0.48657725 0.0015777472 0.0015129935           35 
   25800   0.54602138   -7.0876428   0.49099228 0.0015858924  0.001509339           34 
   25900   0.53939723   -7.1544076   0.49547798 0.0015942019 0.0015057054           42 
   26000   0.54637302   -7.1716725   0.48720415 0.0015615517 0.0015020949           50 
   26100   0.51540434   -7.1618154    0.4798287 0.0015320201 0.0014974577           24 
   26200   0.56205011   -7.1932581   0.47107764 0.0014983385 0.0014917815           50 
   26300   0.57343383   -7.1655247   0.46147835 0.0014622254 0.0014854466           38 
   26400   0.52531669   -7.1631638   0.45900544 0.0014488808 0.0014783007           58 
   26500   0.54140518   -7.1761111    0.4635415 0.0014576776 0.0014715037           30 
   26600   0.53835787    -7.108789   0.46004996 0.0014412593 0.0014646249           38 
   26700   0.50748027   -7.1336124   0.46489785  0.001450992 0.0014577139           62 
   26800   0.50580657   -7.1200781   0.47496915 0.0014768941 0.0014515983           59 
   26900    0.5364931   -7.1467458   0.48837619 0.0015129374 0.0014468918           59 
   27000   0.50700755   -7.0689011   0.49221865 0.0015191933 0.0014427202           63 
   27100   0.53179721   -7.1154699   0.49521538 0.0015228025 0.0014390234           49 
   27200   0.53897029   -7.1474559   0.48449057 0.0014843461  0.001434431           25 
   27300   0.52973216   -7.1512384   0.48127102 0.0014690812 0.0014294231           58 
   27400   0.52575115   -7.1286284   0.48795792 0.0014840569 0.0014243832           75 
   27500   0.54138385   -7.1276697   0.48767837 0.0014778132 0.0014197682           62 
   27600   0.52211474   -7.1119456   0.48378454 0.0014607021 0.0014150024           63 
   27700   0.52395457   -7.1453383   0.48081209 0.0014464864 0.0014097653           52 
   27800   0.53667554   -7.1193753   0.47374965 0.0014201128 0.0014039435           54 
   27900   0.51301901   -7.1060997    0.4777845 0.0014270743 0.0013980675           68 
   28000   0.52986336   -7.1127232   0.46944532 0.0013971587 0.0013920169           57 
   28100   0.50143733   -7.2062807   0.47758919  0.001416338 0.0013860422           30 
   28200   0.53811561   -7.1308905   0.48084142 0.0014209262 0.0013805377           48 
   28300    0.5106623   -7.1174674   0.48887355  0.001439557 0.0013755899           35 
   28400    0.5693799   -7.1499802   0.48224964 0.0014150517 0.0013705507           49 
   28500   0.53019745   -7.1400231   0.48105154 0.0014065834 0.0013653577           43 
   28600   0.53797014   -7.1237718   0.47539717 0.0013851899 0.0013596313           38 
   28700   0.54254054   -7.0971583   0.46821523 0.0013595099 0.0013535399           43 
   28800   0.52199825    -7.143664   0.47174654 0.0013650073 0.0013471921           45 
   28900   0.56135747   -7.1438498   0.48409984 0.0013959049 0.0013417143           62 
   29000   0.54099477   -7.1375994   0.49590909 0.0014250261 0.0013372968           34 
   29100   0.51503151   -7.1330967   0.49756978 0.0014248848 0.0013331972           36 
   29200   0.56318204   -7.1320507   0.48971967 0.0013976018  0.001328815           45 
   29300   0.54086524   -7.1136521   0.48223465 0.0013715434 0.0013238119           61 
   29400   0.52853399    -7.143237   0.47808084 0.0013551044 0.0013182802           70 
   29500   0.52192883   -7.1509385     0.481106 0.0013590565 0.0013128048           57 
   29600   0.53857742   -7.1138966   0.47528911 0.0013380887 0.0013071695           38 
   29700   0.50346126   -7.0802075   0.47332989 0.0013280861 0.0013011666           36 
   29800   0.53669169   -7.1620983   0.48101221 0.0013451124 0.0012954488           37 
   29900   0.52493632   -7.0556429   0.48596693 0.0013544229 0.0012903457           39 
   30000   0.51311594    -7.155348   0.49492656  0.001374796 0.0012857016           36 
   30100   0.52773789   -7.1152941   0.49734382 0.0013769208 0.0012813798           38 
   30200   0.51525446    -7.105344   0.49855496 0.0013757035 0.0012772967           34 
   30300   0.51851578   -7.1131207   0.50419984 0.0013866882 0.0012734216           39 
   30400   0.51185591   -7.1461251     0.503812 0.0013810636 0.0012697133           31 
   30500   0.52829875    -7.147895   0.51032638 0.0013943343 0.0012662327           52 
   30600    0.5127377   -7.1322257   0.51249433 0.0013956817 0.0012629757           46 
   30700   0.50899515   -7.1283469   0.51051582  0.001385765 0.0012596689           50 
   30800   0.53805807   -7.1618287     0.515097 0.0013936607 0.0012563891           61 
   30900    0.5449206   -7.1438245     0.516696 0.0013934627 0.0012534266           55 
   31000   0.53280319    -7.099821   0.51965213 0.0013969143  0.001250383           42 
   31100   0.55753855   -7.1340035   0.52333713 0.0014022967 0.0012476264           61 
   31200   0.54115491   -7.1589053   0.53611986  0.001431944 0.0012455987           58 
   31300   0.51711435   -7.1199639   0.52797104 0.0014056737 0.0012435498           89 
   31400   0.52800376   -7.0827269   0.51763944 0.0013737777 0.0012407127           90 
   31500   0.52377766   -7.1713394   0.52654677 0.0013929808  0.001237784           83 
   31600   0.53886039   -7.1294772    0.5274628 0.0013909884 0.0012352936           87 
   31700   0.53137003    -7.137012    0.5287732 0.0013900452 0.0012326965           92 
   31800   0.52131723   -7.1183879   0.52554187 0.0013772061  0.001230126           96 
   31900   0.52110404   -7.1593569   0.52056971    0.0013599 0.0012271068           88 
   32000   0.50849969   -7.1521322   0.51824989 0.0013496091 0.0012238421          107 
   32100    0.5273373   -7.1222089   0.52255676 0.0013565855 0.0012207435          114 
   32200   0.56288744   -7.1420554   0.51749497 0.0013392727 0.0012174917           99 
   32300   0.53347853    -7.155754    0.5304208 0.0013684747 0.0012145333          100 
   32400   0.52179501   -7.1404101   0.53373253 0.0013727688 0.0012120422           88 
   32500   0.51495997   -7.1865381   0.53602939 0.0013744343 0.0012097239           74 
   32600   0.53152476   -7.1253918   0.53431138 0.0013658266 0.0012071873           74 
   32700   0.54266919   -7.1738469   0.53872802 0.0013729052 0.0012049172           65 
   32800   0.49847512   -7.1278203    0.5370804 0.0013645335 0.0012025718           73 
   32900   0.53307996   -7.1564203   0.53560989 0.0013566613 0.0012001818           72 
   33000   0.52984799   -7.1495876   0.53283231 0.0013455361 0.0011975226           59 
   33100   0.51685299   -7.1819927   0.52653084 0.0013256063 0.0011946315           88 
   33200   0.51269507   -7.1156595   0.52713467 0.0013231292 0.0011914996           87 
   33300   0.52744876   -7.1272427   0.53229051 0.0013320583 0.0011884381           94 
   33400   0.52653505   -7.1491656    0.5383466 0.0013431801 0.0011858007           87 
   33500   0.53062755   -7.1394603   0.53781319 0.0013378437 0.0011832465           81 
   33600   0.55572569   -7.1631756    0.5332922 0.0013226493  0.001180521           78 
   33700   0.53651806    -7.135082   0.53475709 0.0013223469 0.0011776421           63 
   33800   0.55385888   -7.1411043   0.53496181 0.0013189393 0.0011749277           79 
   33900   0.53207802   -7.1279702   0.53207318 0.0013079478 0.0011721235           96 
   34000    0.5385049   -7.1653928   0.53113517 0.0013018019 0.0011692051           93 
   34100   0.50570912   -7.1690402   0.53232043 0.0013008808 0.0011660808          102 
   34200    0.5137025   -7.1574467   0.54638112  0.001331338 0.0011634869          105 
   34300   0.55756513   -7.1451409   0.54252215  0.001318081 0.0011610423          116 
   34400   0.50962303   -7.1695138   0.54607677 0.0013228604 0.0011587482           90 
   34500   0.50287278   -7.1547802   0.54317351 0.0013120133 0.0011562079          117 
   34600   0.53048887   -7.1420327   0.54403748 0.0013103022 0.0011537096           84 
   34700   0.53658757   -7.1229441   0.54534414 0.0013096641 0.0011512388           97 
   34800   0.52313518   -7.1217205    0.5432604 0.0013009109 0.0011487699           99 
   34900   0.52863765    -7.121847   0.54290672 0.0012963388 0.0011460719           80 
   35000   0.53734552   -7.1750201   0.54235307 0.0012913168 0.0011434018           78 
   35100   0.55351396    -7.119365   0.55057836 0.0013071661 0.0011409171           78 
   35200   0.52741806    -7.183413   0.55357223 0.0013105403 0.0011388415           56 
   35300   0.53811234   -7.1176849   0.55096115 0.0013006637  0.001136523           79 
   35400   0.53135199   -7.1525728   0.56006499 0.0013184204 0.0011345265           63 
   35500   0.54589025   -7.1120111   0.56117206 0.0013173053 0.0011326165           72 
   35600   0.52730079   -7.1145737   0.55874672 0.0013079277 0.0011306994           62 
   35700   0.54441681   -7.1598743   0.55442559 0.0012941774 0.0011286382           57 
   35800   0.52109109   -7.1569838   0.54307712  0.001264146 0.0011261065           79 
   35900   0.49753238   -7.1517027   0.53717342 0.0012469206 0.0011230867           85 
   36000   0.53754663    -7.146225    0.5309317 0.0012290086 0.0011197586           84 
   36100   0.50723547   -7.1593583   0.53454346 0.0012339415 0.0011163702           75 
   36200   0.53577105   -7.1404282   0.52916943 0.0012181617 0.0011129678           63 
   36300   0.55795555   -7.1657495   0.53195227 0.0012211944 0.0011095417          109 
   36400   0.53882303    -7.175922   0.53009677 0.0012135915  0.001106164           98 
   36500   0.51727695   -7.1276637   0.52697469 0.0012031386 0.0011025954          108 
   36600   0.55693353   -7.1551063   0.52920475 0.0012049288 0.0010990462           83 
   36700   0.53792669   -7.1209555   0.52894224 0.0012010496 0.0010954915           77 
   36800   0.52675429   -7.1431971   0.52950947 0.0011990703 0.0010919966           56 
   36900   0.55786291   -7.1560989   0.52608283 0.0011880823 0.0010883772           68 
   37000   0.54971529    -7.152165   0.53163193 0.0011973692 0.0010848728           56 
   37100   0.55998957    -7.172638   0.53605413 0.0012040748 0.0010816367           70 
   37200   0.51960409   -7.1736636   0.52835424 0.0011835892 0.0010783398           67 
   37300   0.52460604   -7.1565458   0.52937276 0.0011826916 0.0010747808           74 
   37400   0.53727264   -7.1396633    0.5323896 0.0011862513 0.0010713743           70 
   37500   0.54586802   -7.1430255   0.53229499 0.0011828777 0.0010680421           53 
   37600   0.52766305   -7.1880332   0.52853457 0.0011713975 0.0010646915           76 
   37700   0.53730648    -7.120613   0.53072177  0.001173125 0.0010611561           82 
   37800   0.53540851   -7.1407361   0.52631605 0.0011603087 0.0010576842           87 
   37900   0.55006605   -7.1300284   0.52362352  0.001151327 0.0010540151           74 
   38000   0.55085879   -7.1525135   0.52547392 0.0011523551 0.0010503813           77 
   38100   0.54485781   -7.1949465   0.53296087 0.0011657062 0.0010468621           39 
   38200   0.56852176   -7.1200761      0.54234 0.0011831152 0.0010438544           73 
   38300   0.53307951   -7.1362727   0.55175206 0.0012005049 0.0010411881           54 
   38400    0.5216083   -7.1503045   0.56224845 0.0012201572 0.0010388617           69 
   38500   0.55087028   -7.1118442   0.56007957 0.0012122934 0.0010367925           68 
   38600   0.51222692   -7.1496404   0.56100926 0.0012111599 0.0010346678           60 
   38700   0.53313953   -7.1388119   0.54561226 0.0011748757 0.0010321101           64 
   38800   0.54527982   -7.1519745   0.55055159 0.0011824561 0.0010294483           68 
   38900   0.53050512   -7.1997785   0.54781959 0.0011735638 0.0010267969           70 
   39000   0.51869266   -7.0775257   0.54165382   0.00115738 0.0010238672           46 
   39100   0.54900853   -7.1380982   0.54826866  0.001168518 0.0010211373           51 
   39200   0.51002208   -7.1221851   0.54740655 0.0011637044 0.0010184613           75 
   39300    0.5269868   -7.1651341   0.55849303 0.0011842515 0.0010159131           39 
   39400   0.54455114   -7.1142729   0.56188697 0.0011884242  0.001013767           89 
   39500   0.51553722   -7.1371348   0.55635636 0.0011737476 0.0010115279           65 
   39600    0.5426072   -7.1675855   0.55314395 0.0011640234 0.0010090316           67 
   39700   0.54115184    -7.151876    0.5550768 0.0011651486 0.0010065353           40 
   39800   0.56207795   -7.1370156   0.55387019 0.0011596947 0.0010040997           52 
   39900   0.52080093   -7.1509936   0.55117182 0.0011511525 0.0010015331           53 
   40000   0.51595856    -7.156159   0.56042215 0.0011675461 0.00099901763           42 
   40100   0.51152829   -7.1449121   0.55701683 0.0011575578 0.00099674439           62 
   40200   0.51842704   -7.1630607   0.55433142 0.0011491116 0.00099426257           63 
   40300   0.54090175   -7.1126778   0.54613502 0.0011293114 0.0009915529           34 
   40400   0.54218543   -7.1438864   0.55996648 0.0011550463 0.00098909757           31 
   40500   0.51544969   -7.1740837   0.55911578  0.001150444 0.00098670792           57 
   40600   0.53971339   -7.1147604   0.56703495 0.0011638648 0.00098448148           65 
   40700   0.51322168   -7.1201278   0.58445669 0.0011966763 0.00098275264           69 
   40800   0.51642392   -7.0990011   0.58621609 0.0011973368 0.00098141185           39 
   40900   0.52607624   -7.1610416   0.57202834 0.0011655019 0.00097981084           19 
   41000   0.54692494   -7.1500752   0.55824959 0.0011346536 0.00097762148           61 
   41100   0.52933656   -7.1396482   0.54354245 0.0011020731 0.00097486489           60 
   41200   0.50131517   -7.1509197   0.54941487  0.001111276 0.0009719428           70 
   41300   0.52506983   -7.1844412   0.55178318  0.001113364 0.00096926622           81 
   41400   0.55118566    -7.139975   0.55273738 0.0011125953 0.00096658918           89 
   41500   0.54101785   -7.1623443   0.55546794 0.0011153975 0.00096409938           94 
   41600   0.50859694   -7.1292742   0.54351567 0.0010887734 0.00096131693           71 
   41700   0.52119673   -7.1501466   0.55357407 0.0011062631 0.00095851051           62 
   41800   0.54561101   -7.1341963   0.54298259 0.0010825012 0.00095574674           43 
   41900   0.54069497   -7.1614928   0.55085922 0.0010955832 0.0009528815           52 
   42000    0.5410497   -7.1602512   0.55309494 0.0010974106 0.00095029553           64 
   42100   0.54759365   -7.1195684   0.54876713 0.0010862374 0.00094756779           47 
   42200   0.53350304   -7.1181043   0.55276787 0.0010915637 0.00094493592           47 
   42300    0.5118512   -7.1552585   0.55705674 0.0010974325 0.00094236822           60 
   42400   0.53266307   -7.1025212   0.56270335 0.0011059421 0.00093998127           22 
   42500   0.54034838   -7.1614576   0.57130411 0.0011202041 0.00093792128           23 
   42600   0.51402534    -7.113953   0.57252384 0.0011199605 0.00093595928           20 
   42700   0.53996105   -7.1220497   0.56986377 0.0011121463 0.00093387542           53 
   42800   0.53133584   -7.1383842   0.56671907  0.001103425 0.00093186855           34 
   42900   0.53808033   -7.1674457   0.56048883 0.0010887506 0.00092949095           42 
   43000   0.47997198   -7.1056467   0.56089646 0.0010870086 0.00092714618           41 
   43100   0.54477932   -7.1578643   0.56526143 0.0010929262 0.00092480141           26 
   43200   0.54949991   -7.1223795   0.56984195 0.0010992322 0.00092272233           21 
   43300   0.52451855   -7.1493226    0.5716735 0.0011002184 0.00092074586           30 
   43400   0.51959454   -7.1470164   0.57014281 0.0010947442 0.00091862126           24 
   43500   0.53962135    -7.139523   0.57330495 0.0010982853 0.00091664777           26 
   43600   0.53745347   -7.1639362   0.57805257 0.0011048405 0.0009147684           31 
   43700   0.54452845   -7.1555496   0.58271669 0.0011112065 0.0009130516           37 
   43800   0.52342906   -7.1651335   0.59187182 0.0011260879 0.00091151406           30 
   43900   0.54812521   -7.1034931   0.59292004 0.0011255126 0.00091014783           31 
   44000   0.54062379   -7.1805142   0.59300689 0.0011231191 0.00090873478           40 
   44100   0.53981499   -7.1369636    0.5821488 0.0011000544 0.0009071586           69 
   44200   0.56391918   -7.1704394   0.57730197 0.0010884275 0.00090533098           55 
   44300   0.53010361   -7.1304505   0.57055575 0.0010732802 0.00090333436           61 
   44400   0.54313612   -7.1487367   0.56426787 0.0010590613 0.00090116418           65 
   44500   0.52211908   -7.2065545   0.56695454 0.0010617126 0.00089890586           76 
   44600   0.51125577   -7.1306458   0.57073667 0.0010663989 0.00089671234           73 
   44700    0.5251514   -7.1444366   0.58290079 0.0010866905 0.00089477924           59 
   44800    0.5233338   -7.1148944   0.58298834 0.0010844277 0.00089306288           86 
   44900   0.54288627   -7.1518371   0.59109147 0.0010970517 0.00089141414           96 
   45000    0.5277064   -7.1636501   0.59088423   0.00109423 0.00088988369          111 
   45100    0.5316256   -7.1780644   0.59359201 0.0010968071 0.00088842992           83 
   45200   0.52922381   -7.0997937   0.59477907 0.0010965691 0.0008870457           65 
   45300   0.52762225   -7.1625261   0.60484719 0.0011126696 0.0008857587           79 
   45400   0.54108687   -7.1310696   0.60087158 0.0011029214 0.00088453999           85 
   45500    0.5477105   -7.1340143     0.604755 0.0011076099 0.0008833065           74 
   45600   0.52444507   -7.1096011   0.60013566 0.0010967391 0.00088205959           59 
   45700   0.50410069    -7.141672   0.58340313 0.0010638277 0.00088048235          108 
   45800   0.54284278   -7.1434597   0.58422977  0.001063009 0.00087861946           76 
   45900    0.5411649   -7.1521013   0.59284396 0.0010763325 0.0008770338           54 
   46000   0.53715454   -7.1803686   0.59451052 0.0010770118 0.00087552088           64 
   46100   0.55275541   -7.1056621    0.5942443 0.0010741943 0.00087398867           56 
   46200   0.52758193   -7.1713744   0.59612195  0.001075256 0.00087250272           66 
   46300   0.56265488   -7.1632569   0.58377904 0.0010507182 0.00087081308           95 
   46400   0.50847263   -7.1584087   0.59062223 0.0010607439 0.00086906055           73 
   46500   0.51209646   -7.1344217    0.5985449 0.0010726611 0.00086751284           68 
   46600   0.54360532   -7.1351475    0.6124872 0.0010952918 0.00086626403           46 
   46700   0.52226349   -7.1553159   0.61277515 0.0010934603 0.00086522952           48 
   46800   0.55030499   -7.1594871   0.61299388 0.0010915133 0.00086409255           54 
   46900    0.5342801   -7.1168923   0.61992037 0.0011014932 0.00086312413           58 
   47000   0.54427049   -7.1384903   0.61455034 0.0010896282 0.0008621096           51 
   47100   0.53124148   -7.1312389   0.61341463 0.0010853054 0.00086101076           45 
   47200   0.52667584   -7.1580277    0.6159388 0.0010874626 0.00085994785           72 
   47300   0.52363987    -7.145669   0.60704101 0.0010694873 0.00085875464           55 
   47400   0.56213497   -7.1596431   0.60998574 0.0010724081 0.00085750311           43 
   47500   0.53268597   -7.1417845   0.60527357 0.0010618834 0.00085620529           45 
   47600   0.51600494   -7.1735859   0.60231812 0.0010544785 0.00085470901           41 
   47700    0.5115437   -7.1485098   0.60194739 0.0010516202 0.00085318849           40 
   47800   0.54066746   -7.1099608   0.61216349 0.0010672306 0.0008519138           37 
   47900   0.53872349   -7.1574905   0.60984088 0.0010609619 0.0008507173           61 
   48000    0.5129191   -7.1571037   0.60616055 0.0010523621 0.00084937784           44 
   48100   0.55316151   -7.1423036   0.60169252 0.0010424333 0.0008479073           46 
   48200    0.5239778   -7.1732733    0.6032905 0.0010430334 0.00084641924           54 
   48300   0.54530545   -7.1527444   0.59535155 0.0010271766 0.00084482952           65 
   48400   0.58223985   -7.1505538   0.60084627 0.0010345149 0.00084324792           49 
   48500   0.52675427   -7.1138557   0.60262909 0.0010354452 0.0008417435           75 
   48600   0.53212955   -7.1578138   0.60312893 0.0010341717 0.00084019931           53 
   48700   0.52837325   -7.1720249   0.60677902  0.001038294 0.00083873341           53 
   48800   0.55390032   -7.1655634   0.61617006  0.001052203 0.00083746315           70 
   48900   0.53198473    -7.131986   0.62088203 0.0010580812 0.00083633198           59 
   49000   0.51074233   -7.1591238    0.6260524  0.001064715 0.00083533784           68 
   49100   0.54534394   -7.1857611   0.62264658 0.0010567661 0.00083429505          106 
   49200   0.55638135   -7.1442573   0.61999331 0.0010501242 0.00083321031           62 
   49300   0.52809478   -7.1620413    0.6237464 0.0010543381 0.00083208832           59 
   49400   0.50518915   -7.1629829   0.62081719 0.0010472625 0.00083106116           97 
   49500   0.53012581   -7.1491314   0.61989634 0.0010435965 0.00082988607           62 
   49600   0.55290011   -7.1504047   0.62355923 0.0010476465 0.00082874215           56 
   49700   0.52573651   -7.1390836   0.62731987 0.0010518442 0.00082767424           79 
   49800   0.53275962   -7.1836273   0.62980118 0.0010538842 0.0008267209           44 
   49900   0.52802515    -7.177391   0.63549589 0.0010612824 0.00082579108           50 
   50000    0.5324288   -7.1328628    0.6438347 0.0010730578 0.00082507324           49 
   50100   0.56981722   -7.1369736   0.64431129 0.0010717087 0.00082444036           54 
   50200   0.53451298    -7.142798    0.6365388 0.0010566713 0.00082373675           27 
   50300   0.52717693   -7.1289189   0.63410191 0.0010505333 0.00082280002           89 
   50400   0.48526859   -7.1691516   0.63396429 0.0010482214 0.00082187177           36 
   50500   0.52017694   -7.1472122   0.63729835 0.0010516474 0.0008209539           45 
   50600   0.54516239   -7.1681694   0.64359784 0.0010599437 0.00082018069           74 
   50700   0.52250535   -7.1684057   0.63563205 0.0010447601 0.00081928471           52 
   50800   0.52250955    -7.135541   0.63485985 0.0010414368 0.00081834611           41 
   50900   0.54046777   -7.1503494   0.63407535 0.0010381063 0.0008173515           37 
   51000   0.52523055   -7.1348269   0.63674077 0.0010404261 0.00081644919           41 
   51100   0.55130604   -7.1630138   0.63459041 0.0010348832 0.00081554151           82 
   51200   0.53330213   -7.1654168   0.63697938 0.0010367503 0.00081457764           37 
   51300    0.5080194   -7.1602497   0.63011282 0.0010235751 0.00081352538           67 
   51400   0.50449228   -7.1919186   0.62340244 0.0010107043 0.00081229889           92 
   51500   0.54563971   -7.1703567   0.61960063   0.00100259 0.00081099301           56 
   51600   0.52075383   -7.1663972   0.62120129  0.001003232 0.00080963675           91 
   51700    0.5228572   -7.1381083   0.62375916 0.0010054145 0.00080833903          104 
   51800   0.54654402   -7.1512077   0.62444925 0.0010045837 0.00080710296           92 
   51900   0.53614307   -7.1783651   0.63083383 0.0010128995 0.00080592263           83 
   52000   0.54101049   -7.1489839   0.63756921 0.0010217455 0.00080488971           61 
   52100   0.55558937   -7.1516265   0.64231871 0.0010273812 0.00080396929           47 
   52200   0.51243552   -7.1319094   0.63719075 0.0010172266 0.00080298676           45 
   52300   0.51025894   -7.1496371   0.63734414  0.001015526 0.00080196124          108 
   52400    0.5240172   -7.1497026   0.64716454 0.0010292057 0.00080105346           43 
   52500   0.55243254   -7.1141754   0.64431933 0.0010227291 0.00080016753          106 
   52600   0.52518069   -7.1654949    0.6456608   0.00102291 0.00079932501          136 
   52700   0.52028996   -7.1658324   0.63619992 0.0010060087 0.00079830285          114 
   52800   0.54800382   -7.2003689   0.63145182 0.00099660956 0.0007971245          138 
   52900   0.56976099   -7.1028422   0.63668978  0.001002977 0.00079602234           69 
   53000   0.54105484   -7.1406727   0.64752823 0.0010181261 0.00079505924           60 
   53100   0.52519863   -7.1537438   0.65147646  0.001022405 0.00079424968          152 
   53200   0.49393445   -7.1380376   0.65093208 0.0010196304 0.0007934246          151 
   53300   0.54540127   -7.1939289   0.65355422 0.0010218171 0.00079262428          148 
   53400   0.54362839   -7.1682275   0.65457042 0.0010214894 0.00079184868          158 
   53500    0.5207563   -7.2048574   0.65700075 0.0010233656 0.00079114144          132 
   53600    0.5481917   -7.1597749   0.65621211 0.0010202303 0.00079034915          104 
   53700   0.53300174     -7.15477   0.65394811  0.001014817 0.0007896091           96 
   53800   0.52696251   -7.1559829   0.63825025 0.00098861562 0.00078859167          127 
   53900   0.51967074    -7.158219   0.63295219 0.00097859026 0.00078742059          114 
   54000   0.53075375   -7.1941647    0.6429205 0.00099216126 0.00078626884          145 
   54100   0.50922346   -7.1683682   0.64496031 0.00099346935 0.00078526114          152 
   54200    0.5196001   -7.1471645   0.65391811 0.0010054091 0.00078431613           77 
   54300   0.52772363   -7.1646925    0.6543363 0.0010041994 0.0007835122          124 
   54400   0.55786006    -7.147417   0.66391668 0.0010170292 0.00078273416          150 
   54500   0.54085147   -7.1287302   0.65888501 0.0010074694 0.00078212831          160 
   54600   0.53722889   -7.1968637   0.64975701 0.00099169263 0.00078124514          131 
   54700   0.52315037    -7.161173    0.6451385 0.00098284353 0.00078022263          136 
   54800   0.54421496   -7.1751423   0.64601188 0.00098237815 0.00077918384          120 
   54900    0.5388994   -7.1625713   0.64526197 0.00097945046 0.00077816344          141 
   55000   0.54087171   -7.2103861   0.65267968 0.0009889086 0.00077715112          159 
   55100   0.55694069   -7.1679108   0.65021181 0.00098338143 0.00077618939          156 
   55200   0.55981862   -7.1552547   0.64984995 0.00098105366 0.00077521703          153 
   55300   0.53722074   -7.1545338   0.65571415 0.00098811655 0.0007743108          153 
   55400   0.51986596   -7.1941837   0.65796486 0.0009897185 0.00077343279          133 
   55500   0.55197297   -7.1455911   0.65639311 0.00098557523 0.00077255819          145 
   55600   0.53668741   -7.1489138    0.6582172 0.00098653656 0.00077171021          133 
   55700   0.52543869   -7.1511349   0.65951133 0.00098670156 0.00077081469          148 
   55800   0.53080525   -7.1483594   0.66681222 0.00099583664 0.0007700434          160 
   55900   0.53161321   -7.1761463   0.66387606 0.00098967808 0.00076932718          172 
   56000   0.51932547   -7.1593325   0.66325121 0.00098698096 0.00076849151          182 
   56100   0.54355496   -7.1338905   0.66057281 0.00098124302 0.00076770121          186 
   56200   0.52088079   -7.1482231   0.65300537 0.00096827604 0.00076675152          192 
   56300   0.52158686   -7.1678111   0.65485022 0.00096928688 0.00076576577          207 
   56400   0.52574511   -7.1261636     0.661286 0.00097707741 0.0007648699          213 
   56500   0.51840861   -7.1669991   0.66402977 0.00097939493 0.00076401908          198 
   56600   0.54447324   -7.1926577   0.66731601 0.00098250295 0.00076321847          192 
   56700   0.52606552   -7.1477169   0.67568788 0.00099307448 0.00076252947          205 
   56800   0.51750231   -7.1922525   0.67987807 0.00099747369 0.00076193727          184 
   56900   0.54676629   -7.1512744   0.68375754 0.0010014024 0.00076140872          199 
   57000   0.52573568   -7.1461176    0.6756709 0.00098782294 0.00076083631          195 
   57100   0.51239401   -7.1774307   0.66590852 0.00097184546 0.00076006438          202 
   57200   0.51939682   -7.1791355   0.66989171 0.00097594945 0.00075924479          208 
   57300   0.53641834   -7.1661103   0.67762575 0.0009854941 0.0007585417          200 
   57400   0.57070199   -7.1678821   0.67436681 0.00097904588 0.00075789233          206 
   57500    0.5167915   -7.1737251    0.6674672 0.00096734375 0.00075712851          227 
   57600   0.54363098   -7.1725138   0.66813611 0.00096663209 0.00075628044          211 
   57700   0.56785137   -7.1386788   0.67989117 0.0009819341 0.00075555886          177 
   57800   0.53761151   -7.1420903   0.68599375 0.00098903366 0.00075498345          194 
   57900   0.53602654   -7.1868821   0.68882625 0.0009914022 0.00075453072          191 
   58000   0.54863254   -7.1952835   0.69106989 0.0009929165 0.00075400784          187 
   58100    0.5328602   -7.1503398    0.7048115 0.0010109172 0.00075366747          149 
   58200   0.51668686   -7.1823095   0.70672584 0.0010119213 0.00075344988          161 
   58300   0.51413669    -7.142399   0.70749624 0.0010112868 0.00075320136          155 
   58400   0.54000622   -7.1787278   0.69842163 0.0009966062 0.00075291469          153 
   58500   0.51202302   -7.1413955   0.69283118  0.000986939 0.00075242936          156 
   58600   0.54328676   -7.1938368   0.68055464 0.00096779669 0.00075182982          158 
   58700   0.52049846   -7.2020136   0.66380002 0.00094236231 0.00075095441          165 
   58800   0.55404904   -7.1813602   0.66953976 0.00094889421 0.00074998815          160 
   58900   0.53084688   -7.1665592   0.68047619 0.00096275635 0.00074920859          176 
   59000   0.50458274   -7.1779023   0.67723716 0.00095654966 0.00074844529          174 
   59100   0.52666704   -7.2121413   0.68580379 0.00096701041 0.00074772413          185 
   59200   0.52553558   -7.1430007   0.68644586 0.00096628077 0.0007470673          164 
   59300   0.53393881   -7.1720764    0.6888328 0.00096800561 0.00074642838          174 
   59400   0.50165639   -7.1508287    0.6951872 0.00097529067 0.00074585111          166 
   59500   0.51571637   -7.1584615   0.69414795  0.000972196 0.0007453066          209 
   59600   0.53459613   -7.1654245   0.69525347 0.00097211055 0.00074478412          186 
   59700   0.55759844   -7.1656697   0.69694573 0.0009728444 0.00074423471          172 
   59800   0.55430013   -7.2057512   0.68758461 0.00095817253 0.00074361995          190 
   59900   0.53139418   -7.1796094   0.68304812 0.0009502617 0.00074289178          205 
   60000   0.52916225   -7.1388056   0.68743426 0.0009547698 0.00074215102          164 
   60100   0.52288812    -7.170199    0.7001237 0.00097077606 0.00074154588          163 
   60200   0.51890194   -7.1594988   0.69808816 0.00096634573 0.00074102574          204 
   60300   0.51800437   -7.1839501   0.70050368 0.00096808137 0.0007405185          212 
   60400   0.54410251    -7.147111   0.69113064 0.00095354669 0.00073989576          175 
   60500    0.5354354   -7.1941696   0.68903256 0.00094908065 0.00073922931          205 
   60600   0.54054016   -7.1898994   0.69664584 0.00095798382 0.00073854876          189 
   60700   0.58049799   -7.1656531   0.69209344 0.00095015573 0.00073793958          213 
   60800     0.502251   -7.1638323   0.69488191 0.00095241488 0.00073726503          193 
   60900   0.53806653   -7.1770329   0.69270743 0.00094787552 0.00073659203          224 
   61000   0.51674484   -7.1818126   0.68986467 0.00094243806 0.00073588532          247 
   61100   0.54870036   -7.1980199   0.68761842 0.00093783199 0.00073514158          237 
   61200   0.53335113   -7.1640476   0.69686889 0.00094889554 0.00073445909          223 
   61300   0.54668941   -7.1981134    0.7108881 0.00096640578 0.00073395101          242 
   61400   0.52578225   -7.1828373   0.71320741 0.00096797965 0.00073355041          254 
   61500    0.5269593   -7.1660741   0.71177921 0.00096447046 0.00073313281          253 
   61600   0.55181789   -7.1830852   0.70680867 0.00095618055 0.00073265545          224 
   61700   0.52268995   -7.1994569   0.70877749 0.00095728996 0.00073216368          205 
   61800    0.5129203   -7.2187076   0.70019184 0.00094416375 0.00073158476          216 
   61900     0.538185   -7.1671883    0.7031644 0.00094664027 0.00073097944          239 
   62000    0.5258689   -7.1539146   0.69916292 0.0009397351 0.00073034862          250 
   62100   0.51704197   -7.1761041   0.69940551 0.00093854738   0.00072968          229 
   62200   0.54291529   -7.1762836   0.70266788 0.00094140926 0.00072905307          241 
   62300   0.51631679   -7.1654935   0.71259919 0.00095318242 0.0007285252          243 
   62400   0.52180146   -7.1680384   0.70800446 0.00094551878 0.00072799465          252 
   62500   0.52602834   -7.1776391   0.70784599 0.00094379464 0.00072743019          285 
   62600   0.54389626   -7.1646073   0.71590135 0.00095301032 0.00072692613          247 
   62700   0.51141222   -7.1682371   0.72061399 0.00095775383 0.00072647996          247 
   62800   0.53747189   -7.1964803   0.71286512 0.00094594628 0.00072603336          234 
   62900   0.53979356   -7.1925164   0.71331692 0.00094504095 0.0007255209          236 
   63000   0.51938072   -7.1784921    0.7088746 0.00093766481 0.00072495558          230 
   63100   0.53043351   -7.1771829   0.71016287 0.00093788017 0.00072438205          254 
   63200   0.51710035   -7.1438736   0.71443075 0.00094202366 0.00072381916          208 
   63300   0.51075869   -7.1797631   0.71825236 0.00094556655 0.00072332535          241 
   63400   0.51986785   -7.1524771   0.72005153 0.00094643997 0.00072284914          219 
   63500   0.51134976   -7.1487399   0.71834827 0.00094271426 0.00072238979          220 
   63600   0.51979269    -7.153751   0.71535025 0.00093730378 0.00072187147          202 
   63700   0.52404706   -7.1649862   0.70329871 0.00092006633 0.00072122714          222 
   63800   0.50894229   -7.1979288   0.70590425 0.00092202748 0.00072053246          234 
   63900   0.56602051   -7.1690412   0.70346965 0.00091740955 0.00071980562          241 
   64000   0.50818137   -7.1418623    0.7119054 0.00092696015 0.00071916751          253 
   64100   0.51064621   -7.1376796   0.71778453 0.0009331572 0.00071861335          272 
   64200   0.54502259   -7.1496873   0.71879687 0.00093301773 0.00071809671          244 
   64300   0.53059185     -7.18827   0.72009411 0.00093324793 0.00071756997          257 
   64400   0.54725369   -7.1798407   0.72228039 0.00093462782 0.00071709697          242 
   64500   0.55613235   -7.1735059   0.73484479 0.00094941187 0.00071665723          261 
   64600   0.54447492   -7.1556073   0.73402456 0.0009468841 0.00071635918          260 
   64700   0.53627816   -7.1626429   0.71619092 0.00092245094 0.00071589869          266 
   64800   0.53543034   -7.1999103   0.71853408 0.00092404074 0.0007152909          276 
   64900   0.52738602   -7.1114276   0.72265981 0.00092791449 0.00071477134          264 
   65000   0.54171135   -7.1465584   0.72662665 0.00093157262 0.00071429985          262 
   65100   0.52560017   -7.1674857   0.71999103 0.00092164749 0.00071375174          260 
   65200    0.5260911   -7.1986359   0.72599832 0.00092791196 0.00071322438          272 
   65300   0.53649011   -7.1479362    0.7363892 0.0009397514 0.00071276953          264 
   65400   0.50985781   -7.1623681    0.7386186 0.0009411552 0.00071242979          273 
   65500   0.53014556   -7.1593559   0.73474076 0.00093478467 0.00071206594          280 
   65600   0.54523709   -7.1600744   0.72520013 0.00092123999 0.00071158213          217 
   65700   0.51724377   -7.1825432   0.72385776 0.00091813515 0.00071106017          247 
   65800   0.52534435   -7.1936159   0.71961981 0.0009113726 0.00071048578          261 
   65900   0.55403744   -7.1945309   0.72867432 0.00092143945 0.00070992995          268 
   66000   0.52099615   -7.1554737   0.73138055 0.00092346028 0.00070944513          280 
   66100   0.51651225   -7.1616657   0.72525108 0.0009143357 0.00070891931          294 
   66200   0.49942523   -7.1868604    0.7276065 0.00091591955 0.00070836027          309 
   66300   0.54448033   -7.1707893   0.73186551 0.00091989128 0.00070786267          303 
   66400   0.51660648   -7.1731972   0.72998515 0.00091614602 0.00070735689          291 
   66500   0.54574027   -7.1674177   0.73080191 0.00091579186 0.00070683117          287 
   66600   0.52558831    -7.160782   0.73785975 0.00092324793 0.00070637958          278 
   66700     0.517677   -7.1691598   0.72786194 0.00090937273 0.00070588275          283 
   66800   0.54658659   -7.1774211   0.72603767 0.00090573561 0.00070528458          277 
   66900   0.52301724   -7.1817855   0.72519323 0.00090332987 0.00070470508          254 
   67000   0.51277144   -7.1832972   0.72267084 0.00089884432 0.00070406007          280 
   67100   0.53286302   -7.1239441   0.72821509 0.00090439031 0.00070342894          253 
   67200   0.53966083   -7.1634379   0.71711269 0.00088927664 0.00070278859          265 
   67300    0.5157776   -7.1928158   0.72259782 0.00089474717 0.0007020775          273 
   67400   0.55118075   -7.1832683   0.72132201 0.00089184224 0.00070142991          265 
   67500   0.52888799   -7.1712313   0.71825563 0.00088673534 0.00070073713          269 
   67600   0.51924693   -7.1985699   0.71436272 0.00088062465 0.00069997162          289 
   67700   0.52214234   -7.1933557   0.72382636 0.00089097286 0.00069926566          294 
   67800   0.54780839   -7.1706031   0.72429085 0.00089022966 0.00069861957          311 
   67900   0.55700457   -7.1658458   0.73600999 0.0009033014 0.00069803681          312 
   68000    0.5184501   -7.1503924   0.74126544 0.00090841353 0.00069753878          307 
   68100   0.54289432   -7.2047118   0.74446206 0.00091099126 0.00069710902          335 
   68200   0.50383474   -7.1491503   0.73481374 0.00089786624 0.00069664119          326 
   68300   0.52744564   -7.2020779   0.73296689 0.00089429829 0.00069606931          342 
   68400   0.52244228   -7.1836995   0.72647963 0.00088508726 0.00069542014          355 
   68500   0.50667795   -7.2019385    0.7319518 0.0008904523 0.00069479634          376 
   68600   0.50643793   -7.1652989   0.74133739 0.00090055561 0.00069427678          373 
   68700   0.52006825   -7.1755416    0.7445721 0.00090316848 0.00069381128          367 
   68800   0.55068491   -7.1758815   0.74840015 0.00090649242 0.00069336558          363 
   68900   0.53019674     -7.17081   0.75311618 0.00091088071 0.00069297441          395 
   69000   0.51605186   -7.1927432   0.74579525 0.0009007189 0.00069255741          398 
   69100    0.5082938   -7.1745859   0.75235369 0.00090732475 0.00069212898          362 
   69200   0.53229293   -7.1883938   0.75879366 0.00091376885 0.00069178953          381 
   69300    0.5363185   -7.2117501    0.7557815 0.00090882816 0.00069142846          399 
   69400   0.52793572   -7.1525784   0.76102277 0.00091381215 0.00069110362          381 
   69500     0.530326   -7.2017075    0.7552738 0.00090560407 0.00069075144          425 
   69600   0.52758163   -7.1775983   0.76489232 0.00091581934 0.00069041992          433 
   69700   0.54448283   -7.2194669   0.77135141 0.00092222789 0.00069020583          435 
   69800   0.53491215   -7.1922558   0.78358608 0.00093551346 0.00069006713          462 
   69900   0.52350217   -7.1993435    0.7674593 0.00091494909 0.00068990222          461 
   70000   0.53412655   -7.2411957   0.77059135 0.00091737065 0.00068961515          462 
   70100   0.53494352   -7.1820601   0.76445726 0.00090876992 0.00068936134          432 
   70200   0.50992573   -7.1978942   0.76056557 0.0009028556 0.00068901608          446 
   70300   0.51990796   -7.2108749   0.76109068 0.00090219378 0.00068861599          455 
   70400    0.5122453   -7.1444684   0.77331377 0.00091538088 0.00068830898          436 
   70500   0.52903127   -7.2236737   0.76547817 0.00090482053 0.00068799967          462 
   70600   0.54441374   -7.2070196   0.76919948 0.00090793139 0.00068770205          477 
   70700   0.51260825   -7.2137742   0.78852212 0.00092942258 0.00068751109          472 
   70800   0.56112178     -7.22502   0.78315842 0.00092179663 0.00068738351          479 
   70900    0.5317645   -7.2216194   0.78714166 0.00092517825 0.00068727111          484 
   71000   0.52871783   -7.2372391   0.79150216 0.00092899314 0.00068714886          476 
   71100   0.54228825   -7.1981845   0.79187752 0.00092812648 0.00068709915          443 
   71200    0.5331872   -7.1857822    0.7855221 0.00091938447 0.00068700107          448 
   71300    0.5093014   -7.2132048   0.78763885 0.00092056901 0.00068684837          472 
   71400   0.55142607    -7.226113   0.78948026 0.00092142887 0.00068670375          461 
   71500   0.52427937   -7.1922836   0.78847633 0.00091897008 0.00068656098          465 
   71600   0.50736674   -7.2419071   0.78304079 0.00091136032 0.00068637548          450 
   71700   0.53546714   -7.2405593   0.79033156 0.00091856294 0.00068619192          478 
   71800   0.54474257   -7.2226219   0.79519077 0.00092292335 0.00068607266          447 
   71900   0.51990344   -7.1913315   0.80223039 0.00092979878 0.00068600061          447 
   72000   0.51656703    -7.213404   0.80009848 0.0009260399 0.00068596835          444 
   72100   0.55684738   -7.2263865   0.80096749 0.00092575992  0.000685906          468 
   72200   0.53825949   -7.2132417   0.80145537 0.00092504082 0.00068587839          506 
   72300   0.50338058   -7.2260428   0.79453172 0.00091578114 0.00068574365          497 
   72400   0.51467133   -7.2115804   0.78805715 0.00090706393 0.0006855656          481 
   72500   0.52402749   -7.2121798    0.7868872 0.00090446804 0.00068531512          469 
   72600   0.51810176   -7.2150489   0.79015965 0.00090697847 0.00068508581          479 
   72700    0.5517617   -7.1879166   0.79199263 0.00090783198 0.00068486943          485 
   72800   0.53455108   -7.2069496   0.78896831 0.00090312306 0.00068468516          490 
   72900   0.53087813   -7.2481896   0.78613613 0.00089864669 0.00068441202          472 
   73000   0.56589893     -7.20028   0.79278941 0.00090501073 0.00068415197          461 
   73100   0.55550759   -7.2341946    0.8065332 0.00091944048 0.00068403243          447 
   73200   0.52811277   -7.2138579   0.80495036 0.00091638246 0.00068394608          455 
   73300   0.53598404   -7.2282717   0.80935011 0.00092013427 0.00068387783          474 
   73400   0.55194176   -7.1961254   0.80301556 0.00091168887 0.00068377405          465 
   73500   0.55623658   -7.2554344   0.80281668 0.00091022299 0.00068362975          476 
   73600   0.51253127   -7.2301851   0.80428744 0.00091065154 0.00068351987          458 
   73700   0.54416431   -7.1905074   0.80596766 0.00091131576 0.00068335673          474 
   73800    0.5160385   -7.1771879    0.8137189 0.00091883344 0.00068327768          469 
   73900   0.52408606    -7.253415   0.80504374 0.00090780755 0.00068317222          501 
   74000   0.53873142    -7.260775   0.80821502 0.00091015204 0.00068304707          508 
   74100   0.55933387   -7.2455504   0.80057112 0.00090032739 0.00068289745          510 
   74200   0.54501063   -7.2620417   0.80545102 0.00090459458 0.00068267702          497 
   74300     0.535319   -7.2492838   0.80769808 0.00090589735 0.00068253582          497 
   74400   0.53492807   -7.2755003   0.82229394 0.00092102815 0.00068244992          497 
   74500   0.56069051   -7.2233921   0.83134742 0.0009299188 0.00068247928          504 
   74600   0.53946301   -7.2324416   0.83137934 0.00092870793 0.0006825568          524 
   74700   0.53316055   -7.2305038   0.82933533 0.00092518443 0.00068260029          537 
   74800   0.50197647   -7.1885806   0.83423506 0.00092940625 0.00068269414          526 
   74900   0.51668081   -7.2515233   0.83038978 0.00092388715 0.00068270773          541 
   75000    0.5267589   -7.2564666   0.83083442 0.00092314935 0.0006827561          557 
   75100   0.52508204   -7.2286979   0.82115807 0.00091118294 0.00068269892          546 
   75200   0.50349583   -7.2220889   0.81700732 0.00090537158 0.00068258255          526 
   75300   0.54991995   -7.2522436   0.82555465 0.00091362842 0.00068248056          503 
   75400   0.57553392   -7.2482832   0.82117993 0.0009075817 0.00068241356          529 
   75500   0.50775675   -7.1953179   0.82383892 0.00090931447 0.00068230035          508 
   75600   0.48022694   -7.2261477   0.84013591 0.00092607573 0.00068227782          526 
   75700   0.53179747   -7.2322384   0.83553332 0.00091978568 0.00068233906          522 
   75800   0.53100462   -7.2323384   0.84014092 0.00092363777 0.00068237282          506 
   75900   0.52306823   -7.2278875   0.83775161 0.00091979755 0.00068241091          512 
   76000   0.50703317   -7.2584358   0.85069101 0.00093277522 0.00068250027          529 
   76100   0.51328661   -7.2343744   0.84711375 0.00092763222 0.00068260349          537 
   76200   0.54562343   -7.2158125   0.84363836 0.00092261412 0.00068268265          533 
   76300   0.51634748   -7.2551767    0.8376064 0.00091481694 0.00068269813          535 
   76400   0.51400976   -7.2312557   0.83956479 0.00091575566 0.0006826786          525 
   76500   0.53576205   -7.2131076   0.83974168 0.00091475128 0.0006826492          536 
   76600   0.52342824   -7.1950624   0.84307766 0.00091718631 0.00068268478          533 
   76700   0.54982547   -7.2306647   0.83783269 0.00091029192 0.00068265241          520 
   76800    0.5240006   -7.2365698   0.83152507 0.00090226244 0.00068255505          539 
   76900   0.53361888   -7.2231246   0.82253457 0.00089134652 0.00068240915          519 
   77000   0.50646928   -7.2445825   0.82441138 0.0008922201 0.00068218415          548 
   77100   0.52886461   -7.2510753   0.84551387 0.00091387145 0.00068208312          541 
   77200   0.53876775   -7.2289545   0.85251222 0.00092024203 0.00068210865          529 
   77300    0.5362291   -7.2424667   0.85094237 0.00091735916 0.00068216171          544 
[...]
   83200   0.54719103   -7.3206132   0.95662162 0.00095815466 0.00069294005          720 
   83300    0.5392032   -7.3485414   0.95800294 0.00095838629 0.00069337408          744 
   83400   0.49451668   -7.3127633   0.96609235 0.00096532008 0.00069382162          732 
   83500   0.54771797   -7.3799372    0.9808089 0.00097885119 0.00069437218          735 
   83600   0.51496731   -7.2998003   0.98656663 0.00098341968 0.00069497512          733 
   83700   0.50574833   -7.3640834    0.9981174 0.00099374491 0.00069565709          745 
   83800   0.54010087   -7.3598206    0.9868957 0.00098139986 0.00069630424          744 
   83900   0.54244271   -7.3531423   0.99896176 0.0009922147 0.00069694059          766 
   84000   0.53507417   -7.3809889   0.99687295 0.00098896125 0.00069762245          772 
   84100   0.54371607   -7.3734479   0.99993341 0.00099081788 0.00069831211          777 
   84200   0.53171926   -7.3416466    1.0108708  0.001000466 0.00069903222          769 
   84300   0.49691649   -7.3296906    1.0034061 0.00099190001 0.00069973085          771 
   84400    0.5187148    -7.376203      1.00571 0.0009929996 0.00070040841          773 
   84500   0.51849173   -7.3656928    1.0119348 0.00099796336 0.00070111647          763 
   84600   0.55065834    -7.323473    1.0095399 0.00099442462 0.00070181531          763 
   84700   0.52247346    -7.366084    1.0040949 0.00098789341 0.00070247422          776 
   84800   0.52861239    -7.370197    1.0000001 0.00098270445 0.0007030637          781 
   84900   0.54548137   -7.3952923    1.0053362 0.00098678467 0.00070367678          774 
   85000   0.55075963   -7.3727233    1.0172563 0.00099731011 0.00070434805          764 
   85100   0.52017127   -7.3928031     1.027284 0.0010059577 0.00070509739          758 
   85200   0.54507047   -7.3587084    1.0313983 0.0010088012 0.0007058658          745 
   85300    0.5184198   -7.3552925    1.0537681 0.0010294725 0.00070673767          761 
   85400   0.49478502   -7.3893498    1.0653592 0.0010395776 0.00070772138          762 
   85500   0.52803966   -7.3593905    1.0536591 0.0010269582 0.00070867781          788 
   85600   0.54458139   -7.4219658    1.0418719 0.0010142834 0.00070953854          780 
   85700   0.53770974   -7.4161686    1.0479173 0.0010189783 0.00071037307          793 
   85800   0.53167454   -7.4030771    1.0574358 0.0010270355 0.00071125163          790 
   85900   0.54882301   -7.4039389     1.064157 0.0010323603 0.00071218656          793 
   86000   0.54717085   -7.4096615    1.0593746 0.0010265258 0.00071310299          817 
   86100   0.53258269   -7.4502585    1.0580159 0.0010240185 0.00071396827          803 
   86200   0.54509003   -7.3938671    1.0622874   0.00102696 0.00071487322          807 
   86300   0.53421298    -7.413107    1.0691899 0.0010324352 0.00071578108          807 
   86400   0.53730035   -7.3920378    1.0596277 0.0010220174 0.00071666031          814 
   86500    0.5345972   -7.4399721    1.0671055   0.00102804 0.0007175195          820 
   86600   0.53550398   -7.4267027    1.0652725  0.001025089 0.00071840912          815 
   86700   0.56389515   -7.4109758     1.077144 0.0010353172 0.00071930465          822 
   86800   0.52347186   -7.4380531    1.0800361  0.001036901 0.00072025685          828 
   86900   0.51867753   -7.4127324    1.0800272 0.0010356993 0.00072121303          821 
   87000   0.54422802   -7.4027169    1.0723923 0.0010271957 0.00072210473          827 
   87100   0.54195952   -7.4417962    1.0791187 0.0010324519 0.00072298171          823 
   87200    0.5297647     -7.46425    1.0848069 0.0010367038 0.00072390326          837 
   87300   0.52998508   -7.4760912    1.0918559  0.001042245 0.00072484002          842 
   87400   0.53540235   -7.4262861    1.0929666 0.0010421116 0.00072578077          842 
   87500   0.53307808   -7.4711521    1.0934515 0.0010413824 0.00072673758          837 
   87600   0.51540295   -7.4706475    1.1102559 0.0010561795 0.00072772136          844 
   87700   0.51959636   -7.4852867    1.1301173 0.0010738477 0.00072884484          848 
   87800   0.49420571   -7.5045829    1.1350289 0.0010772864 0.00073002432          850 
   87900   0.53750636   -7.5418644    1.1405397 0.0010812853 0.00073124423          858 
   88000   0.53884213    -7.504121    1.1345601 0.0010743941 0.00073243857          855 
   88100   0.53115762   -7.5198609    1.1280055 0.0010669745 0.00073358117          850 
   88200   0.52506029   -7.5017643    1.1132284 0.0010518031 0.00073462601          858 
   88300   0.49528031   -7.5065873    1.1174583 0.0010546039   0.00073563          854 
   88400   0.53461789   -7.4813081     1.119703  0.001055527 0.00073664138          856 
   88500   0.56097527   -7.5160121    1.1352885 0.0010690099 0.00073771451          855 
   88600   0.57276845    -7.450192    1.1154146 0.0010491108 0.0007387597          856 
   88700   0.52217528   -7.4898621    1.1181231 0.0010504727 0.0007396994          858 
   88800   0.52782187   -7.5301135    1.1042653  0.001036285 0.00074063321          855 
   88900    0.5508594   -7.4712762    1.0951283 0.0010265545 0.00074143072          858 
   89000   0.52984408   -7.5004395    1.1182005 0.0010470042 0.00074229515          861 
   89100   0.52026773   -7.5239907     1.121601 0.0010490096 0.00074322274          858 
   89200   0.52439897   -7.4949279    1.1403055 0.0010653078 0.00074420431          860 
   89300   0.50013212   -7.4657422    1.1398983 0.0010637349 0.00074525747          853 
   89400   0.50029907   -7.5150024    1.1370986 0.0010599353 0.00074629098          852 
   89500   0.54065448   -7.5182965    1.1212963 0.0010440375 0.00074722284          850 
   89600   0.52851886   -7.5006517    1.1146421 0.0010366835 0.00074806118          855 
   89700   0.51165897   -7.5253305    1.1042042 0.0010258307 0.00074883643          850 
   89800   0.53541644   -7.5201731    1.1090503 0.0010291855 0.00074959555          847 
   89900    0.5493079   -7.5227652    1.1082793  0.001027326 0.00075035464          860 
   90000   0.52882183   -7.5556405     1.118357 0.0010355157 0.00075114256          857 
   90100   0.55020409    -7.527847    1.1279566 0.0010432451 0.00075196239          853 
   90200   0.50938096   -7.4847171    1.1417016 0.0010547871 0.00075287159          850 
   90300   0.50408641   -7.5040937    1.1391366  0.001051252 0.00075379985          853 
   90400   0.53110351   -7.5203669    1.1338419 0.0010452082 0.00075466524          861 
   90500   0.53678585   -7.4974464    1.1352719 0.0010453701 0.00075552295          853 
   90600   0.50808667   -7.5135487    1.1381779 0.0010468891 0.00075636641          858 
   90700   0.50504417   -7.4980375    1.1181867 0.0010273674 0.00075715396          854 
   90800   0.52155504   -7.5140119    1.1189088 0.0010268987 0.00075786376          857 
   90900   0.54666387   -7.4924438    1.1096307 0.0010172632 0.00075852518          851 
   91000   0.51096583   -7.5327615    1.1189827 0.0010247095 0.00075920247          860 
   91100   0.52519352   -7.5281272    1.1257352 0.0010297614 0.00075989898          855 
   91200   0.57042033   -7.4845186    1.1315987   0.00103399 0.0007606397          855 
   91300   0.52827972   -7.5197897    1.1314964 0.0010327641 0.00076140532          856 
   91400   0.53712957   -7.5057613    1.1396036 0.0010390259 0.00076217082          851 
   91500    0.5132207    -7.512139    1.1398957 0.0010381564 0.00076294866          859 
   91600   0.53465791   -7.5198454    1.1223744 0.0010210829 0.00076367982          856 
   91700   0.51643701   -7.5170285    1.1170702 0.0010151492 0.0007642904          850 
   91800   0.54488081   -7.4729912    1.1264892 0.0010225937 0.00076489169          852 
   91900   0.53892976   -7.4992425    1.1307078 0.0010253063 0.00076556578          850 
   92000   0.53037927   -7.5540985    1.1394171 0.0010320807 0.00076625581          850 
   92100   0.49137976   -7.5159055    1.1411086 0.0010324906 0.00076694919          852 
   92200    0.5099201   -7.5061142    1.1588999 0.0010474511 0.00076773372          852 
   92300   0.52210717   -7.4722058    1.1432709 0.0010322056 0.00076850773          842 
   92400   0.52376408   -7.5448925    1.1313425 0.0010203306 0.00076916353          850 
   92500   0.51153999   -7.5171588    1.1247275  0.001013268 0.00076975341          849 
   92600   0.53591525   -7.5620031    1.1335848 0.0010201447 0.00077034143          848 
   92700   0.52022989   -7.5165642     1.140674 0.0010254171 0.00077097445          853 
   92800   0.52716121   -7.5869901    1.1445378 0.0010277818 0.00077163814          853 
   92900   0.53985576   -7.5229194    1.1498673 0.0010314562 0.00077231347          843 
   93000   0.52269338   -7.5254467    1.1462763 0.0010271293 0.00077299651          840 
   93100   0.53398861   -7.5540298    1.1385634 0.0010191223 0.00077361907          845 
   93200   0.55100031   -7.5423379    1.1383688 0.0010178548 0.00077420884          847 
   93300   0.52579788     -7.53541    1.1452108  0.001022875 0.00077480875          844 
   93400   0.52016344   -7.5386639    1.1392931 0.0010164999 0.00077539903          849 
   93500   0.52792549   -7.5052121    1.1460123 0.0010214013 0.00077598834          852 
   93600   0.53891319   -7.4883829    1.1477788 0.0010218828 0.00077659593          851 
   93700   0.52875662   -7.5538418    1.1341106 0.0010086363 0.00077714016          856 
   93800   0.50314583   -7.5109358    1.1384602 0.0010114252 0.0007776646          854 
   93900   0.52885991   -7.5388898    1.1377438 0.0010097122 0.00077817301          854 
   94000   0.51535789   -7.5581981    1.1397492 0.0010104159 0.00077867319          852 
   94100   0.52885711    -7.517193    1.1363043 0.0010062914 0.00077919026          850 
   94200   0.54999174   -7.5392256    1.1462124 0.0010139884 0.00077969475          853 
   94300   0.53279162    -7.524072     1.144724 0.0010115977 0.00078023028          860 
   94400   0.53564318   -7.5487002    1.1368757 0.0010035979 0.00078071868          849 
   94500   0.54407042   -7.5442307    1.1508255 0.0010148373 0.00078121584          852 
   94600   0.53974278   -7.5524556    1.1492936 0.0010124151 0.0007817539          848 
   94700   0.54025757    -7.577075    1.1487848 0.0010108983 0.00078227674          853 
   94800   0.55037943    -7.566946     1.135492 0.00099814696 0.00078272748          852 
   94900   0.55761086   -7.5498357    1.1346105 0.00099632116 0.00078313225          855 
   95000   0.54556014   -7.5320143    1.1364241 0.00099686321 0.00078353983          854 
   95100   0.51440056   -7.5462616    1.1383595 0.00099751094 0.00078395014          855 
   95200   0.55179462   -7.5586913    1.1362587 0.0009946242 0.00078434932          855 
   95300   0.50905951   -7.5552523     1.144438 0.0010007327 0.00078478175          854 
   95400   0.51418544   -7.5636586    1.1526864 0.0010068888 0.00078522767          855 
   95500   0.52250089   -7.5389223    1.1603423 0.0010125151 0.00078572883          856 
   95600   0.56663746   -7.5782831    1.1438895 0.00099711426 0.00078617629          852 
   95700    0.5308768   -7.5541074    1.1480045 0.0009996556 0.00078659041          850 
   95800   0.51479251   -7.5847508    1.1513418 0.0010015151 0.00078700952          860 
   95900   0.56043404   -7.5676786    1.1471595 0.00099683657 0.00078741132          859 
   96000   0.53588506    -7.542137    1.1330925 0.00098358727 0.00078776584          856 
   96100   0.54192432   -7.5442628    1.1411331 0.00098953619  0.000788088          851 
   96200   0.52767476   -7.5335422    1.1451924 0.00099202389 0.0007884488          858 
   96300   0.53098683   -7.5728065    1.1466054 0.00099221654 0.00078881589          859 
   96400   0.52849492   -7.5497179    1.1386649 0.00098432306 0.00078915634          857 
   96500   0.53528327   -7.5460044    1.1550306 0.00099743579 0.00078950401          859 
   96600   0.52714061   -7.5553914    1.1523409 0.00099408294 0.00078989592          859 
   96700   0.51605689   -7.5366029    1.1445633 0.00098635239 0.00079023099          857 
   96800   0.52435419   -7.5507827    1.1313594 0.00097396642 0.00079050379          855 
   96900   0.53455815   -7.5335232    1.1284858 0.00097049005 0.00079071912          860 
   97000   0.50697502   -7.5646448    1.1548861 0.00099217023 0.00079101115          862 
   97100   0.54056998    -7.516596     1.148666 0.00098581019 0.00079134465          853 
   97200   0.52158956   -7.5593749    1.1531866 0.00098867167 0.00079166891          856 
   97300   0.52811069   -7.5498175    1.1518759 0.00098653295 0.00079198562          858 
   97400   0.52601021   -7.5289493     1.156947 0.00098985886 0.00079231065          858 
   97500   0.52009703   -7.5288837    1.1437484 0.00097756269 0.00079260002          857 
   97600   0.51635834   -7.5572693    1.1418984 0.00097498154 0.00079284589          856 
   97700   0.54087722   -7.5477728    1.1453024 0.00097688703 0.0007930799          853 
   97800   0.52081813   -7.5557018      1.14776 0.00097798226 0.00079333482          855 
   97900   0.56235807   -7.5705846    1.1509647 0.00097971117 0.00079359201          851 
   98000   0.53812538   -7.5526229    1.1445203 0.00097323151 0.00079383922          853 
   98100   0.52224805   -7.5862433    1.1474024 0.00097468774 0.00079408086          854 
   98200   0.54830371    -7.538681    1.1420305 0.00096913655 0.00079428566          855 
   98300   0.51498623   -7.5328729    1.1585629 0.00098216589 0.00079453895          850 
   98400   0.50241863   -7.5638968    1.1595324 0.00098198885 0.00079480558          858 
   98500    0.5124755   -7.5496589    1.1579918 0.00097968853 0.00079508337          854 
   98600   0.56043017   -7.5355389    1.1626196 0.00098260617 0.00079536373          855 
   98700   0.53169972    -7.572436    1.1581952 0.00097787506 0.00079563842          856 
   98800   0.53855702   -7.5247796    1.1621388 0.00098021153 0.00079590056          857 
   98900    0.5269877   -7.5071376    1.1624065 0.00097944598 0.00079618629          855 
   99000   0.52740903   -7.5667595    1.1487515 0.00096696254 0.00079641233          857 
   99100   0.52255139   -7.5616814     1.142452 0.00096068956 0.00079654884          856 
   99200    0.5444503   -7.5429295    1.1489982 0.00096522029 0.0007967055          853 
   99300   0.50908497   -7.5243583    1.1423133 0.00095863817 0.00079684549          858 
   99400   0.52490338   -7.5585043      1.16275 0.00097480718 0.00079701556          854 
   99500   0.50284294   -7.5365886    1.1544227 0.00096685317 0.00079722419          860 
   99600   0.50715188   -7.5301549    1.1368674 0.00095119428 0.00079734343          854 
   99700   0.52816242   -7.5207015     1.145304 0.00095729191 0.00079742956          857 
   99800   0.55091133   -7.5643975     1.150941 0.00096103956 0.00079755908          859 
   99900   0.51893947   -7.5463981    1.1401887 0.00095110837 0.00079769264          859 
  100000   0.52911669   -7.5668712    1.1432022 0.00095266849 0.00079775243          854 
  100100   0.53467988   -7.5396561    1.1467843 0.00095469888 0.00079784172          855 
  100200   0.53115368   -7.5447569    1.1559652 0.00096138155 0.00079797395          856 
  100300   0.53051217   -7.5808714    1.1473447 0.00095326077 0.00079809903          858 
  100400   0.51868909    -7.509001    1.1584775 0.00096155167 0.00079821153          849 
  100500   0.54635217   -7.5263478    1.1583958 0.00096052717 0.00079836652          852 
  100600   0.53052243   -7.5352567    1.1478898 0.00095086958 0.00079847064          857 
  100700   0.51257819    -7.567734    1.1458922 0.00094827224 0.00079853785          858 
  100800   0.53881167   -7.5264846      1.14067 0.00094301421 0.00079856204          857 
  100900   0.54288176   -7.5668285     1.154595 0.0009535803 0.00079863153          858 
  101000   0.53485507   -7.5534283     1.160558 0.00095755613 0.00079872257          857 
  101100   0.53009498   -7.5528199    1.1654255 0.00096062112 0.0007988803          856 
  101200   0.53137088   -7.5513736     1.145458 0.00094322958 0.00079896116          857 
  101300   0.52781812   -7.5445013    1.1360352 0.00093454689 0.00079895492          858 
  101400   0.50200761   -7.5073951    1.1422488 0.00093873173 0.00079894304          857 
  101500   0.54579704   -7.5306387    1.1514371 0.00094535066 0.00079897616          856 
  101600   0.53175785   -7.5716486    1.1417026 0.00093643586 0.00079899238          855 
  101700   0.54231288   -7.5575457    1.1458908 0.00093894692 0.00079898155          851 
  101800    0.5377264   -7.4913669    1.1528249 0.00094370079 0.00079900701          852 
  101900   0.54332085    -7.551411    1.1535196 0.00094334282 0.00079904933          854 
  102000   0.52819123   -7.5520047    1.1489255 0.00093866459 0.00079906399          857 
  102100   0.52286243   -7.5606739    1.1594656 0.00094634804 0.00079910131          859 
  102200   0.54053782   -7.5147599    1.1602553 0.00094606596 0.00079916077          856 
  102300   0.51462664   -7.5445489    1.1530909 0.0009393051 0.00079922287          856 
  102400   0.52090904   -7.5468423    1.1464147 0.00093295469 0.00079922224          856 
  102500   0.54099221   -7.5753757    1.1471748 0.00093266248 0.00079917841          852 
  102600   0.54511061   -7.5531488    1.1373663 0.0009237868 0.00079914475          858 
  102700   0.52572284   -7.5792644    1.1376395 0.00092310896 0.00079906837          849 
  102800    0.5354811   -7.5153912    1.1361134 0.00092097388 0.0007989733          854 
  102900   0.53732728   -7.5560937     1.142189 0.00092499917 0.00079889499          849 
  103000   0.54353769   -7.5700365    1.1483635 0.00092909667 0.00079884906          852 
  103100   0.56073292   -7.5337172    1.1429447 0.00092381559 0.00079878743          855 
  103200   0.51010299   -7.5491169    1.1530413 0.00093107337 0.00079873898          857 
  103300   0.52279784   -7.5531118    1.1571499 0.00093348652 0.00079872557          861 
  103400    0.5455191   -7.5252221     1.155839 0.00093152727 0.00079871077          859 
  103500   0.54195453   -7.5607885    1.1546762 0.00092969098 0.00079868384          859 
  103600   0.54499459   -7.5657872    1.1440168 0.00092021942 0.00079862548          856 
  103700   0.51792158   -7.5564341     1.137884 0.00091440371 0.00079850737          855 
  103800   0.52396056   -7.5012313    1.1350787 0.00091127064 0.00079836824          859 
  103900    0.5572451   -7.5806539    1.1399986 0.00091433959 0.00079824959          858 
  104000   0.52124315   -7.5544608    1.1388401 0.00091253216 0.00079814024          856 
Loop time of 196.099 on 12 procs for 100000 steps with 864 atoms

Performance: 88118.900 tau/day, 509.947 timesteps/s
99.4% CPU use with 12 MPI tasks x no OpenMP threads

MPI task timing breakdown:
Section |  min time  |  avg time  |  max time  |%varavg| %total
---------------------------------------------------------------
Pair    | 10.295     | 11.117     | 11.94      |  16.0 |  5.67
Neigh   | 0.90365    | 0.92692    | 0.95187    |   1.5 |  0.47
Comm    | 7.441      | 8.4605     | 9.22       |  19.0 |  4.31
Output  | 2.7763     | 2.7772     | 2.7846     |   0.1 |  1.42
Modify  | 170.21     | 170.49     | 170.97     |   1.5 | 86.94
Other   |            | 2.322      |            |       |  1.18

Nlocal:        72.0000 ave          77 max          68 min
Histogram: 1 0 2 4 1 2 0 0 0 2
Nghost:        1664.00 ave        1674 max        1656 min
Histogram: 1 1 0 6 0 1 0 1 1 1
Neighs:        8984.67 ave        9804 max        8148 min
Histogram: 2 1 1 1 0 2 2 0 0 3
FullNghs:      17969.5 ave       19261 max       16906 min
Histogram: 1 0 2 4 1 2 0 0 0 2

Total # of neighbors = 215634
Ave neighs/atom = 249.57639
Neighbor list builds = 4010
Dangerous builds = 0

#clear
#
#next RN
#
#jump SELF



Total wall time: 0:03:16
