
units lj                  # Use reduced LJ style units
atom_style atomic         # Uncharged point particles
atom_modify map hash      # Needed for indexing of clusters etc
                          # Used to be able to find where atoms are in relation to each other.

# Define a lattice with which to populate the simulation cell. With units
# set to 'lj' the second argument to the lattice command is the reduced
# density rho* and the spacings are multiples of that required to acheive
# that density. Also define a simulation cell called 'box' in lattice units
# and fill it with atoms. Here we're creating a box which is ten lattice
# constants in each direction.
lattice fcc 1.0 spacing 1 1 1                 # All equal sizes - gives the right reduced density.
Lattice spacing in x,y,z = 1.5874011 1.5874011 1.5874011

region box block 0 6 0 6 0 6 units lattice # Defines a region, "box", in lattice units
create_box 1 box                              # Creates a simulation box as specified above,
Created orthogonal box = (0.0000000 0.0000000 0.0000000) to (9.5244063 9.5244063 9.5244063)
  2 by 2 by 3 MPI processor grid
                                              # with one type of atom
create_atoms 1 box                            # Creates particles on lattice points
Created 864 atoms
  using lattice units in orthogonal box = (0.0000000 0.0000000 0.0000000) to (9.5244063 9.5244063 9.5244063)
  create_atoms CPU = 0.001 seconds


# Set the mass of the first (and only) atom type.
mass 1 1.0

# Lennard-Jones interactions between particles, 3.5 sigma cut-off. Apply
# long range tail corrections to energy and pressure and set all coefficients
# to unity since we work in reduced units here. Note that this doesn't shift
# the potential such that it goes to zero at the cutoff. That would require
# pair_modify('shift', 'yes').
pair_style lj/cut  3.5      # non-GPU version
pair_modify tail  yes
pair_coeff 1  1  1.0  1.0   # Intearaction between 1 and 1 set with epsilon = 1 and sigma = 1

write_data data.*
System init for write_data ...
Neighbor list info ...
  update every 1 steps, delay 10 steps, check yes
  max neighbors/atom: 2000, page size: 100000
  master list distance cutoff = 3.8
  ghost atom cutoff = 3.8
  binsize = 1.9, bins = 6 6 6
  1 neighbor lists, perpetual/occasional/extra = 1 0 0
  (1) pair lj/cut, perpetual
      attributes: half, newton on
      pair build: half/bin/atomonly/newton
      stencil: half/bin/3d
      bin: standard

#############################
#   M E L T   S Y S T E M   #
#############################

velocity all create 2.4 2750902 mom yes dist gaussian # Assign velocities
                                                    # Temperature 2.4, random number seed, zero linear momentum
						                                                        # Gaussian distribution

timestep 0.002   # simulation timestep
thermo 100       # output thermodynamic data every 100 steps

# Define a fix  in this case with index 1 applied to all
# particles in the simulation. This fix is for simulations
# in the anisotropic NPT ensemble. Note that we use the MTK
# correction.
fix 1 all npt temp 2.4 2.4 0.1 iso 5.68 5.68 0.5 mtk yes tchain 5 pchain 5 # Use NPT ensemble
                                                                         # Set temperature and pressure and damping
                                                                         # Numbers of thermostats in chain and in barostat
run 1000         # run for 10000 steps
Per MPI rank memory allocation (min/avg/max) = 3.633 | 3.633 | 3.634 Mbytes
Step Temp E_pair E_mol TotEng Press Volume 
       0          2.4   -8.3859253            0    -4.790092     -2.24275          864 
     100    1.3007594   -6.4407842            0   -4.4919034    5.3582762    891.69205 
     200    1.5828213   -6.0796178            0   -3.7081338    6.4338598    907.46239 
     300    1.7629056     -5.73851            0   -3.0972122    5.5953229    954.02439 
     400    1.8733232   -5.2785237            0   -2.4717912    6.0585808    994.36537 
     500      2.02574   -4.9360708            0   -1.9009777    5.7478153    1042.8978 
     600    2.2112838   -4.6895875            0   -1.3765009    5.7138268    1079.0368 
     700    2.3146746   -4.4629638            0  -0.99497044    5.6088298    1118.0222 
     800    2.4734008     -4.39503            0   -0.6892229    5.7937797    1123.7282 
     900    2.4206618   -4.2767239            0  -0.64993368    5.5531987    1146.9555 
    1000    2.3618098   -4.2459295            0  -0.70731524    5.7000582    1143.3852 
Loop time of 0.204429 on 12 procs for 1000 steps with 864 atoms

Performance: 845280.231 tau/day, 4891.668 timesteps/s
99.2% CPU use with 12 MPI tasks x no OpenMP threads

MPI task timing breakdown:
Section |  min time  |  avg time  |  max time  |%varavg| %total
---------------------------------------------------------------
Pair    | 0.071754   | 0.078877   | 0.10742    |   3.9 | 38.58
Neigh   | 0.01221    | 0.013199   | 0.016498   |   1.2 |  6.46
Comm    | 0.063278   | 0.095202   | 0.10336    |   4.1 | 46.57
Output  | 0.0001869  | 0.00019472 | 0.00025577 |   0.0 |  0.10
Modify  | 0.014661   | 0.015339   | 0.015852   |   0.3 |  7.50
Other   |            | 0.001618   |            |       |  0.79

Nlocal:        72.0000 ave          80 max          66 min
Histogram: 2 1 2 2 1 0 2 0 0 2
Nghost:        1314.75 ave        1327 max        1295 min
Histogram: 1 0 0 2 3 0 0 1 2 3
Neighs:        6211.67 ave        7136 max        5326 min
Histogram: 2 0 0 2 1 4 1 0 0 2

Total # of neighbors = 74540
Ave neighs/atom = 86.273148
Neighbor list builds = 80
Dangerous builds = 2

# Equilibrate just above the melting temperature to avoid step fn in T

fix 1 all npt temp 1.25 1.25 0.1 iso 5.68 5.68 0.5 mtk yes tchain 5 pchain 5
run 1000
Per MPI rank memory allocation (min/avg/max) = 3.634 | 3.634 | 3.634 Mbytes
Step Temp E_pair E_mol TotEng Press Volume 
    1000    2.3618098   -4.2459295            0  -0.70731524    5.7000582    1143.3852 
    1100    1.8617945   -4.5967525            0    -1.807293    5.9593679    1083.5566 
    1200      1.66126   -5.0091582            0   -2.5201524    5.9308167    1028.0056 
    1300    1.4533368   -5.3154554            0   -3.1379734    5.5185254    997.93023 
    1400    1.3100587   -5.5224566            0    -3.559643    5.2858775     978.0358 
    1500    1.3306301   -5.7450087            0   -3.7513736    5.2687861    956.68836 
    1600    1.2302857    -5.777427            0   -3.9341343     5.385203    950.58576 
    1700    1.2545134   -5.8251615            0   -3.9455694    5.6370291    940.07281 
    1800    1.2669685   -5.8434457            0   -3.9451925    6.1076728    931.13358 
    1900    1.2975362   -5.8185374            0   -3.8744858    5.5765884    942.23221 
    2000    1.2225624   -5.8503078            0   -4.0185867    5.1330896    948.19804 
Loop time of 0.165399 on 12 procs for 1000 steps with 864 atoms

Performance: 1044745.856 tau/day, 6045.983 timesteps/s
99.8% CPU use with 12 MPI tasks x no OpenMP threads

MPI task timing breakdown:
Section |  min time  |  avg time  |  max time  |%varavg| %total
---------------------------------------------------------------
Pair    | 0.070805   | 0.07696    | 0.084769   |   1.5 | 46.53
Neigh   | 0.0099405  | 0.010574   | 0.01178    |   0.5 |  6.39
Comm    | 0.052168   | 0.061294   | 0.068249   |   1.9 | 37.06
Output  | 0.000189   | 0.00019762 | 0.0002695  |   0.0 |  0.12
Modify  | 0.014158   | 0.014534   | 0.014868   |   0.2 |  8.79
Other   |            | 0.00184    |            |       |  1.11

Nlocal:        72.0000 ave          79 max          65 min
Histogram: 1 1 0 4 0 1 1 3 0 1
Nghost:        1466.08 ave        1476 max        1447 min
Histogram: 1 1 0 0 2 0 0 4 1 3
Neighs:        7466.67 ave        8131 max        6694 min
Histogram: 1 0 2 0 3 1 3 0 0 2

Total # of neighbors = 89600
Ave neighs/atom = 103.70370
Neighbor list builds = 67
Dangerous builds = 0


# Small amount of linear quench

fix 1 all npt temp 1.25 ${temp} 0.1 iso 5.68 5.68 0.5 mtk yes tchain 5 pchain 5
fix 1 all npt temp 1.25 0.57 0.1 iso 5.68 5.68 0.5 mtk yes tchain 5 pchain 5
run 2000
Per MPI rank memory allocation (min/avg/max) = 3.634 | 3.634 | 3.634 Mbytes
Step Temp E_pair E_mol TotEng Press Volume 
    2000    1.2225624   -5.8503078            0   -4.0185867    5.1330896    948.19804 
    2100    1.2347637   -5.8710596            0   -4.0210577    5.3879535    940.82129 
    2200    1.2050986   -5.9226817            0    -4.117126    5.7194579    929.17539 
    2300    1.1760829   -5.9379492            0   -4.1758667    6.3267461    917.22077 
    2400    1.1538473   -5.9980659            0   -4.2692981    5.8489646    919.96586 
    2500    1.0707398   -6.0263927            0   -4.4221419    5.9558991    913.44082 
    2600    1.0564482   -6.1068727            0   -4.5240346    5.7169584    910.58083 
    2700    1.0630894   -6.1994187            0   -4.6066302    5.4583208    907.79285 
    2800   0.96764553   -6.1782692            0   -4.7284808    5.8270553    902.40892 
    2900   0.95048342   -6.2441538            0   -4.8200788    5.8113331    895.77873 
    3000   0.92315409   -6.2841699            0   -4.9010415    5.9573976    890.80754 
    3100   0.89003054   -6.3399644            0   -5.0064638    5.9032007    886.85479 
    3200   0.84363191   -6.4316097            0   -5.1676265    5.6616301    882.49642 
    3300   0.82945001   -6.4712767            0   -5.2285417    5.9085634    875.66965 
    3400   0.79667963   -6.4976249            0   -5.3039885    6.1001273    871.01257 
    3500   0.77412248   -6.5831811            0   -5.4233413    5.9492929    866.09659 
    3600    0.7629752    -6.661611            0   -5.5184729    5.7833562    862.24835 
    3700   0.71051157   -6.7197367            0   -5.6552029    5.5803599    860.29533 
    3800   0.65130661   -6.7616031            0    -5.785774    5.3273156    859.93354 
    3900   0.62641555   -6.8127854            0   -5.8742496    5.2656741    855.79034 
    4000      0.60279   -6.8791633            0   -5.9760248    5.4044907    849.69303 
Loop time of 0.348408 on 12 procs for 2000 steps with 864 atoms

Performance: 991941.860 tau/day, 5740.404 timesteps/s
99.8% CPU use with 12 MPI tasks x no OpenMP threads

MPI task timing breakdown:
Section |  min time  |  avg time  |  max time  |%varavg| %total
---------------------------------------------------------------
Pair    | 0.16101    | 0.17122    | 0.19078    |   2.0 | 49.14
Neigh   | 0.016812   | 0.017699   | 0.019667   |   0.6 |  5.08
Comm    | 0.1038     | 0.12536    | 0.13702    |   2.6 | 35.98
Output  | 0.00037308 | 0.00039105 | 0.00052535 |   0.0 |  0.11
Modify  | 0.028324   | 0.029185   | 0.029793   |   0.3 |  8.38
Other   |            | 0.004546   |            |       |  1.30

Nlocal:        72.0000 ave          76 max          68 min
Histogram: 1 1 3 0 0 3 0 0 3 1
Nghost:        1599.83 ave        1618 max        1569 min
Histogram: 1 0 1 2 0 1 1 0 5 1
Neighs:        8466.75 ave        9576 max        7773 min
Histogram: 1 1 3 3 1 1 1 0 0 1

Total # of neighbors = 101601
Ave neighs/atom = 117.59375
Neighbor list builds = 106
Dangerous builds = 0

#############################
# F R E E Z E  S Y S T E M  #
#############################

# Define solid atoms. This closely follows ten Wolde  Ruiz-Montero and Frenkel  Faraday Discuss  1996  104  93-110
# Compute components of the per-atom q6 vector
compute q6 all orientorder/atom degrees 1 6 components 6 nnn NULL cutoff 1.3 # compute the Q6 parameter.
                                                                             # Use all neighbours within 1.3 unit cell.

# get number of connections
compute coord_number all coord/atom orientorder q6 0.5

# An atom is solid if it has 8 or more connections (of a possible 14)
variable is_solid atom c_coord_number>=8
group solid dynamic all var is_solid    # Must be dynamic to update
dynamic group solid defined

# do clustering
compute cluster solid cluster/atom 1.3 # Create a cluster where all atoms within are solid and max 1.3 units from another member

# define chunks one chunk per cluster
compute clus_chunks solid chunk/atom c_cluster nchunk every compress yes  # Says which atoms are in which chunk

# count the size of each chunk
compute size_chunks solid property/chunk clus_chunks count


# Find the maximum entry in the vector of chunk sizes
variable max_n equal max(c_size_chunks)


# Thermo style which includes this variable
# thermo_style custom step temp pe vol v_max_n

thermo ${N}  # Print the thermo information every 100 steps
thermo 100  

# Reset the npt fix at a lower temperature (below freezing)

compute myRDF all rdf 100
fix 2 all ave/time 1 50 100 c_myRDF[*] file pcf.rdf mode vector


compute msd all msd com yes
variable twopoint equal c_msd[4]/6/(step*dt+1.0e-6)
fix 9 all vector 10 c_msd[4]
variable fit equal slope(f_9)/6/(10*dt)
thermo_style custom step temp pe c_msd[4] v_twopoint v_fit v_max_n


fix 1  all npt temp  ${temp} ${temp}  0.1  iso  5.68  5.68  0.5  mtk yes tchain  5  pchain  5
fix 1  all npt temp  0.57 ${temp}  0.1  iso  5.68  5.68  0.5  mtk yes tchain  5  pchain  5
fix 1  all npt temp  0.57 0.57  0.1  iso  5.68  5.68  0.5  mtk yes tchain  5  pchain  5

dump dmp2 all dcd ${N} traj.dcd
dump dmp2 all dcd 100 traj.dcd
dump dmp3 all dcd ${N} traj_unwrap.dcd
dump dmp3 all dcd 100 traj_unwrap.dcd
dump_modify dmp3 unwrap yes


# fix rnuntil all halt ${N} v_max_n >= 3980 error soft message no   # Stop when solidified

run 100000 # 5000000  # Run for this many steps
Neighbor list info ...
  update every 1 steps, delay 10 steps, check yes
  max neighbors/atom: 2000, page size: 100000
  master list distance cutoff = 3.8
  ghost atom cutoff = 3.8
  binsize = 1.9, bins = 5 5 5
  5 neighbor lists, perpetual/occasional/extra = 1 4 0
  (1) pair lj/cut, perpetual
      attributes: half, newton on
      pair build: half/bin/atomonly/newton
      stencil: half/bin/3d
      bin: standard
  (2) compute orientorder/atom, occasional
      attributes: full, newton on
      pair build: full/bin/atomonly
      stencil: full/bin/3d
      bin: standard
  (3) compute coord/atom, occasional
      attributes: full, newton on
      pair build: full/bin/atomonly
      stencil: full/bin/3d
      bin: standard
  (4) compute cluster/atom, occasional
      attributes: full, newton on
      pair build: full/bin/atomonly
      stencil: full/bin/3d
      bin: standard
  (5) compute rdf, occasional, copy from (1)
      attributes: half, newton on
      pair build: copy
      stencil: none
      bin: none
Per MPI rank memory allocation (min/avg/max) = 9.703 | 9.707 | 9.709 Mbytes
Step Temp PotEng c_msd[4] v_twopoint v_fit v_max_n 
    4000      0.60279   -6.8791633 7.8977394e-31 1.6453622e-32 8.3333333e+20            8 
    4100   0.58757212   -6.9028961  0.026160213 0.00053171157  0.023741566            8 
    4200   0.58669217   -6.9662711  0.042394259 0.00084115584  0.018566945           12 
    4300   0.58055436   -6.9718887  0.054546193 0.0010570966  0.015321356           11 
    4400   0.53869772   -6.9443033  0.064875366    0.0012287  0.013126339            9 
    4500    0.5475102   -6.9501869  0.074890278 0.0013868568  0.011751717           10 
    4600   0.55277887   -6.9136895  0.081003489 0.0014674543  0.010665589            8 
    4700   0.54756438   -7.0008135  0.078825979 0.0013976236  0.009258238           10 
    4800   0.55852457   -6.9775242  0.082515965 0.0014325687 0.0079013974           10 
    4900   0.60261095   -6.9965862  0.091154128 0.0015502401 0.0071900366            6 
    5000   0.57718741   -6.9843655  0.098608623 0.0016434769 0.0067582231            5 
    5100   0.57537066   -6.9923439   0.10652886 0.0017406675 0.0065235337           14 
    5200   0.57582761    -6.965409   0.11728266 0.0018795297 0.0064312525           16 
    5300   0.54371173   -7.0053525   0.12412543 0.0019516575 0.0063884747           13 
    5400    0.5936482   -6.9813665   0.13271636 0.0020480918 0.0063857078            5 
    5500    0.5859255   -6.9708909    0.1363021 0.0020651831 0.0063533662           10 
    5600   0.58681475   -7.0416903   0.13618838 0.0020266126 0.0062029841           14 
    5700   0.55354329   -7.0045701   0.13651053 0.0019957679 0.0059725948           10 
    5800   0.57376378   -6.9954649   0.14171675 0.0020361601 0.0057540251           11 
    5900   0.55931926   -6.9933137   0.14996795 0.0021181912 0.0056134013           15 
    6000   0.56429645   -7.0212414   0.14990067 0.0020819536 0.0054719462            5 
    6100   0.56436623   -7.0383735   0.15918226 0.0021746208 0.0053360777            6 
    6200   0.58672877   -7.0375382   0.16499932 0.0022177326 0.0052587206           17 
    6300   0.59089844   -7.0123804   0.16913311 0.0022372103 0.0051809214           15 
    6400   0.57950834   -7.0129829   0.17018618 0.0022159657 0.0050903047            8 
    6500   0.56664525   -7.0157703   0.16800186 0.0021538698 0.0049633388           11 
    6600    0.5908293    -7.010946   0.16896588 0.0021334075 0.0048231575            7 
    6700   0.60418278   -7.0086818   0.16492636 0.0020513228 0.0046615201            7 
    6800   0.56192977   -7.0156154   0.16573031 0.0020310085 0.0044838921            9 
    6900   0.57162538   -7.0340883   0.16774532 0.0020259095 0.0043248947           11 
    7000   0.59120352   -6.9901844   0.16735842  0.001992362 0.0041673071           11 
    7100    0.5678778   -7.0306097   0.16740912 0.0019648956 0.0040182838           12 
    7200   0.54523579   -7.0410647   0.17127024 0.0019822943 0.0038767434           11 
    7300   0.57460533   -7.0046997   0.17300112 0.0019748985 0.0037552003           12 
    7400   0.57097346   -7.0585198   0.17795988 0.0020040526 0.0036428953           19 
    7500   0.55547649   -7.0217963   0.18766374 0.0020851525 0.0035714377           17 
    7600   0.57677146   -7.0074845   0.17980222 0.0019715154 0.0034947085           11 
    7700   0.56388121   -7.0234356    0.1834693 0.0019855984 0.0034033646           13 
    7800   0.57251437   -7.0740975   0.19183557 0.0020495252 0.0033354451           25 
    7900   0.55628483    -7.034765   0.20326288 0.0021441231 0.0032942992           18 
    8000   0.57341352   -6.9875168   0.20428776 0.0021279974 0.0032690557           19 
    8100   0.56892662   -7.0305212   0.20379756 0.0020966826 0.0032343719           11 
    8200    0.5509588   -7.0541616   0.20899518 0.0021239346 0.0031996898           15 
    8300   0.57400741   -7.0253209   0.21049793 0.0021134329 0.0031713804           19 
    8400   0.56257118   -7.0379112   0.20758427 0.0020593677 0.0031274478           11 
    8500   0.60061077    -7.044927   0.21192851 0.0020777304 0.0030912083           24 
    8600   0.54880016   -7.0603254   0.21495072 0.0020828557 0.0030522514           12 
    8700   0.56346832   -7.0375879   0.22418408  0.002147357 0.0030266726           14 
    8800    0.5572736   -7.0558576   0.22789131 0.0021580615 0.0030088847            9 
    8900   0.57268525   -7.0802335   0.23185598  0.002170936 0.0029986726            8 
    9000   0.56610539    -7.032068   0.23788624 0.0022026503 0.0029879228           11 
    9100    0.5787197   -7.0436892   0.23724098 0.0021725363 0.0029771336           10 
    9200   0.56661864   -7.0329253   0.23835929 0.0021590514 0.0029599753           12 
    9300   0.59098329   -7.0503613   0.24309106 0.0021782352 0.0029461413           10 
    9400   0.55433351   -7.0479904   0.24860262 0.0022039239 0.0029353107            9 
    9500   0.55404971   -7.0799921   0.25061041 0.0021983368  0.002926107           15 
    9600   0.59607362   -7.0414378   0.25281391 0.0021945651 0.0029162175           12 
    9700   0.55954112   -7.0640301   0.25959075  0.002230161 0.0029080499           16 
    9800   0.55890533   -7.0349548   0.26231789 0.0022305941 0.0029041163           18 
    9900   0.58561161   -7.0263611   0.26140821 0.0022004057 0.0028965908           20 
   10000   0.57437271   -7.0833079   0.25296951 0.0021080792 0.0028775292           27 
   10100   0.59533328   -7.0580011   0.25128109 0.0020732762 0.0028485459           25 
   10200   0.56776023   -7.0695282   0.25702533   0.00209988 0.0028200834           18 
   10300   0.56747427   -7.0096216   0.25920221 0.0020971051 0.0027974744           21 
   10400   0.57139957   -7.0100002   0.26173461 0.0020972324 0.0027731772           27 
   10500   0.54415213   -7.0641272    0.2673389 0.0021217372 0.0027545696           26 
   10600   0.54921906   -7.0299155    0.2690597 0.0021152491 0.0027344807           11 
   10700   0.57468804   -7.0123301   0.27456823 0.0021383818 0.0027198396           12 
   10800   0.56983781   -7.0488975   0.27222258 0.0021004828 0.0027025593           15 
   10900   0.55001517    -7.059302    0.2793228 0.0021354953 0.0026865278           30 
   11000   0.58651452   -7.0068286   0.28462936 0.0021562829 0.0026760343           48 
   11100   0.56435119   -6.9909135   0.28690672 0.0021539543 0.0026664977           46 
   11200   0.53223031   -7.0244513   0.28621635 0.0021295858 0.0026536117           30 
   11300   0.56041245   -7.0295615   0.28600405 0.0021091743 0.0026395371           37 
   11400   0.58003409   -6.9884708   0.28520997 0.0020848681  0.002623234           53 
   11500   0.58353737   -7.0377038   0.29015717 0.0021025881 0.0026070731           57 
   11600   0.54656217    -6.989588   0.29775338 0.0021390328 0.0025956582           60 
   11700   0.57969099   -7.0532252   0.30685479 0.0021855754 0.0025899834           44 
   11800   0.56835717   -7.0317899   0.30052938 0.0021223825 0.0025820087           32 
   11900   0.56454003   -7.0482317   0.29534713 0.0020682571 0.0025674892           62 
   12000   0.55503921   -7.0396874   0.29715861 0.0020636013 0.0025501877           38 
   12100   0.55616287   -7.0235282   0.30260647 0.0020840665  0.002534832           44 
   12200   0.56779862   -7.0842269   0.29814658 0.0020365203 0.0025194413           50 
   12300   0.57669816   -7.0370697   0.30145384 0.0020423701 0.0025016014           50 
   12400   0.57787877   -7.0197222   0.30743623 0.0020661036 0.0024864907           25 
   12500   0.55930469   -7.0450561   0.31223464 0.0020815642 0.0024747319           32 
   12600   0.61039938   -7.0531294   0.30912644  0.002044487 0.0024626293           61 
   12700   0.57103384   -7.0700243   0.30726901 0.0020162008  0.002446993           27 
   12800   0.57645798    -7.075714   0.30991585 0.0020176813 0.0024304819           46 
   12900   0.60238511   -6.9915147   0.31155308 0.0020126167 0.0024157174           18 
   13000   0.57241882   -7.0316952   0.32030537 0.0020532395 0.0024026478           20 
   13100   0.57953667   -7.0369754   0.32457791 0.0020647449  0.002393621           41 
   13200   0.55675664   -7.0401178   0.32626785 0.0020597717  0.002383123           37 
   13300   0.58420087    -7.072227   0.33427408  0.002094449 0.0023772613           63 
   13400   0.56868608   -7.0630651   0.33304514 0.0020711761 0.0023697222           54 
   13500   0.56322206   -7.0019335   0.32302209 0.0019939634 0.0023585796           42 
   13600   0.56071568   -7.0502581   0.32592897 0.0019971137 0.0023441794           17 
   13700   0.58355333   -7.0617741   0.32652819 0.0019861811 0.0023302686           32 
   13800    0.6084978   -7.0297458   0.32948486 0.0019896428 0.0023169975           61 
   13900    0.5727814   -7.0580104   0.33830069 0.0020281815  0.002305894           40 
   14000   0.57006922   -7.0034128   0.34346798 0.0020444522 0.0022979303           29 
   14100   0.53257522   -7.0608898    0.3534164 0.0020887494 0.0022927157           54 
   14200    0.5454885    -7.048992   0.35570594 0.0020874761 0.0022891548           61 
   14300   0.57213281   -7.0057821   0.35410885 0.0020635713  0.002284489           80 
   14400   0.56309945   -7.0535585    0.3582288 0.0020730832 0.0022793197           60 
   14500   0.56704684   -7.0379806    0.3587454 0.0020617551 0.0022746186           21 
   14600    0.5984455   -7.0380207   0.35841979  0.002045775 0.0022678549           46 
   14700   0.55218636   -7.0269124   0.36566482 0.0020729297 0.0022632616           82 
   14800   0.56371821   -7.0847428   0.36434362 0.0020514843 0.0022584203          107 
   14900   0.57316041   -7.0138285   0.36599127  0.002046931 0.0022532409           59 
   15000   0.58981644   -7.0676428   0.36629011  0.002034945 0.0022475883           58 
   15100   0.57276729   -7.0812388   0.37236131 0.0020549741 0.0022417282           59 
   15200   0.59257609   -7.0489789   0.36712793 0.0020127627 0.0022366213           68 
   15300   0.57784741   -7.0745968    0.3637818 0.0019813823 0.0022284738           63 
   15400   0.55989745   -7.0416859   0.36774851 0.0019899811 0.0022192896           81 
   15500   0.56353485   -7.0764459   0.36925609 0.0019852477 0.0022108049           85 
   15600   0.54715874   -7.0740451   0.35998604 0.0019230023 0.0022005164           28 
   15700   0.56161353   -7.0718842   0.36042994   0.00191311 0.0021874035           33 
   15800   0.61820031    -7.060495   0.35585044 0.0018768483 0.0021744346           57 
   15900   0.57974902   -7.0809283   0.35904073 0.0018817647 0.0021604557           41 
   16000   0.58034369    -7.046161   0.36775274 0.0019153788 0.0021483488           48 
   16100   0.57636998   -7.0719735     0.377494 0.0019539026 0.0021394052           27 
   16200   0.55579465   -7.0508872   0.38099412 0.0019598463 0.0021322407           35 
   16300   0.56132379   -7.0530858   0.38100235 0.0019478647 0.0021248157           24 
   16400   0.58376234   -7.0288635   0.38907515 0.0019770078 0.0021187208           40 
   16500   0.59476613   -7.0693371   0.38825611 0.0019608894 0.0021128343           23 
   16600   0.56701354   -7.0682645   0.38304389  0.001922911 0.0021052536           29 
   16700   0.56632447   -7.0515867   0.38564895 0.0019243959 0.0020968478           19 
   16800   0.55157266   -7.0230345   0.39205492 0.0019447168 0.0020898983           24 
   16900   0.56945191   -7.0511259   0.40077918 0.0019762287 0.0020844577           20 
   17000   0.54482506   -7.0970304   0.40574606 0.0019889512 0.0020802147           24 
   17100   0.55928082   -7.0675646   0.40260833 0.0019620288 0.0020760968           11 
   17200   0.57632302   -7.0516268   0.39617483 0.0019194516 0.0020697633           22 
   17300   0.61792558   -7.0487721   0.39926182 0.0019232264 0.0020630132           13 
   17400   0.56249356   -7.0537387   0.40674053  0.001947991 0.0020575301           12 
   17500   0.58244734   -7.0441685    0.4071937 0.0019390176 0.0020527045           19 
   17600   0.56977775   -7.0112038   0.40098655 0.0018986105 0.0020458667           11 
   17700   0.58372228   -7.1126656   0.39575237 0.0018632409 0.0020372089           25 
   17800   0.56158144   -7.0802458   0.40044252 0.0018747308 0.0020285106           21 
   17900   0.57562766   -7.1180032   0.40452266 0.0018832525 0.0020212482           17 
   18000   0.59072291   -7.0727184   0.40709799 0.0018847129 0.0020136301           26 
   18100   0.57438347   -7.0709015   0.41836223 0.0019261612 0.0020081082           27 
   18200   0.56418139   -7.0537469   0.41925054 0.0019196453 0.0020039286           60 
   18300   0.61683304   -7.0590185   0.41923947  0.001909105 0.0019992116           79 
   18400   0.55851689   -7.0492883    0.4190997 0.0018980964 0.0019943467           70 
   18500   0.58510001   -7.0679339   0.42051277 0.0018942016 0.0019887951           15 
   18600   0.58438332   -7.0727246    0.4233508 0.0018967329 0.0019834584           19 
   18700   0.55779259    -7.064231   0.42249196 0.0018827627 0.0019781845           21 
   18800   0.56004327     -7.06848   0.42579757 0.0018874005 0.0019723977           23 
   18900   0.57324463   -7.0868059   0.42761953 0.0018854476 0.0019672564           32 
   19000   0.56938107   -7.0469739   0.42523824   0.00186508 0.0019612489           34 
   19100   0.57936611   -7.0768892    0.4266874 0.0018616378 0.0019553627           33 
   19200   0.54466744   -7.0825496   0.42308914 0.0018363243 0.0019489728           39 
   19300   0.58022725   -7.0772383   0.42709204 0.0018440934  0.001942127           41 
   19400   0.58163411   -6.9976768    0.4355605 0.0018709643 0.0019364806           42 
   19500   0.58186284   -7.0678623   0.42799782 0.0018290505 0.0019307841           38 
   19600   0.57313248   -7.0103502   0.42664317  0.001813959 0.0019237488           38 
   19700   0.52863586   -7.0464964   0.43458979 0.0018383662 0.0019174551           32 
   19800   0.55962389   -7.0589956   0.42726049 0.0017982343  0.001910914           33 
   19900   0.57756906   -7.0398003   0.42634965 0.0017853838 0.0019029833           28 
   20000   0.55666935   -7.0801576   0.43033371 0.0017930571 0.0018954389           42 
   20100   0.58286342   -7.0311868   0.43433117 0.0018007096 0.0018884769           40 
   20200   0.56656995   -7.0672072   0.44224261 0.0018244332 0.0018826377           26 
   20300   0.61095394   -7.0228453   0.43854712 0.0018002755  0.001876586           40 
   20400   0.59115173   -7.0623809   0.43691694 0.0017847914 0.0018703388           71 
   20500   0.55922989   -7.0760783   0.43449823 0.0017662529 0.0018632787           22 
   20600   0.59261789   -7.0426727   0.43554704 0.0017619216 0.0018560467           22 
   20700   0.55800389   -7.0673892   0.42539856 0.0017125545 0.0018474812           39 
   20800   0.56989616   -7.0300885   0.43084556  0.001726144 0.0018386681           33 
   20900   0.55739091   -7.0406194   0.43328585  0.001727615 0.0018304652           34 
   21000   0.54580186   -7.0613259   0.43091409 0.0017099765 0.0018222896           46 
   21100   0.56688791   -7.0466031   0.44728083 0.0017665119 0.0018149225           33 
   21200   0.57910627   -7.0302151   0.46057046 0.0018104184 0.0018105881           23 
   21300   0.55347498   -7.0806027   0.46255423 0.0018096801 0.0018068171           39 
   21400   0.55809688   -7.0419045   0.45898057 0.0017873075 0.0018026983           38 
   21500   0.57269884   -7.0569847   0.45012872 0.0017446849 0.0017974377           30 
   21600   0.56362167   -7.0919741   0.44619989 0.0017214501 0.0017906368           54 
   21700   0.58233134   -7.0348114   0.44905576 0.0017244844 0.0017839114           26 
   21800   0.58344866   -7.0143265   0.45966764 0.0017571392  0.001778159           64 
   21900   0.55061709   -7.0932919   0.46016706 0.0017510162 0.0017733187           50 
   22000   0.57163936   -7.0640315   0.46292315 0.0017534967 0.0017683785           50 
   22100   0.58089555   -7.0652726   0.46575084 0.0017562248 0.0017639894           57 
   22200   0.56700213     -7.05222   0.47107597 0.0017683032 0.0017596551           45 
   22300   0.55270353   -7.0559468   0.46721328  0.001745939  0.001755182           76 
   22400   0.57134742     -7.04348   0.46907626 0.0017450754 0.0017504372          110 
   22500   0.57742737   -7.0431839   0.46460393 0.0017207553 0.0017455596           65 
   22600   0.56487692    -7.067274   0.46381241 0.0017102227 0.0017402851           56 
   22700   0.55876441   -7.0625569   0.46550672 0.0017089086 0.0017346619           63 
   22800    0.6000209   -7.0414636     0.471084 0.0017217982 0.0017293908           82 
   22900   0.56572529   -7.1287409   0.46796811 0.0017029407   0.00172421           84 
   23000   0.58005118   -7.0951824   0.46893722 0.0016990479 0.0017189254           77 
   23100   0.58967731   -7.0600235    0.4723849 0.0017041302  0.001713753           63 
   23200    0.5724839   -7.0850597   0.47618386 0.0017104305 0.0017092024           57 
   23300   0.54558726   -7.0570392   0.46828613 0.0016748431 0.0017037771           61 
   23400   0.56337085   -7.0818728   0.46801133  0.001666707 0.0016977812           52 
   23500   0.56194568   -7.0331864   0.47128295 0.0016712161  0.001692162           47 
   23600   0.57576262    -7.049757   0.46884168 0.0016555144 0.0016864666           53 
   23700   0.58376507   -7.1267801   0.46769699 0.0016445041 0.0016800693           89 
   23800   0.58515414   -7.0866613   0.47032491 0.0016467959 0.0016740438           86 
   23900   0.57643697   -7.0996554   0.47100418  0.001642274  0.001668206           71 
   24000   0.54920849   -7.0659993   0.47594227 0.0016525773  0.001662444           69 
   24100   0.60133305   -7.0646296   0.47272053   0.00163458 0.0016568638           58 
   24200   0.56518483   -7.1025634   0.47392808 0.0016319837 0.0016508251           68 
   24300   0.57686605   -7.0906693   0.47153047 0.0016170455 0.0016450131          118 
   24400   0.57005473   -7.0722201   0.47205171 0.0016121984 0.0016387284           78 
   24500    0.5976858   -7.0564066   0.47421696 0.0016129828 0.0016326803          126 
   24600    0.5733501   -7.0877788   0.47220232 0.0015996013  0.001626762          143 
   24700   0.56903662   -7.1020512   0.47745537 0.0016108481 0.0016206543           87 
   24800   0.58973404    -7.103053   0.48293126 0.0016227529 0.0016154269           83 
   24900   0.56292762   -7.0429615     0.487028 0.0016299464 0.0016105061          103 
   25000   0.53940854     -7.10439    0.4925838  0.001641946 0.0016061287          106 
   25100   0.56492527   -7.0688061   0.48762603 0.0016189443 0.0016016157          106 
   25200   0.57395897   -7.0912429   0.48503246 0.0016039433 0.0015966593           92 
   25300   0.53107334   -7.0716092   0.48221233 0.0015883146 0.0015910293          111 
   25400   0.56954298   -7.0960165   0.48794239 0.0016008608 0.0015860197           90 
   25500   0.56308338   -7.0555074   0.49584655 0.0016204135 0.0015811476           93 
   25600   0.54745795   -7.1004133    0.4962757 0.0016154807 0.0015770752          110 
   25700   0.57373959   -7.0650233    0.4886118 0.0015843443 0.0015723154          120 
   25800   0.55960093    -7.107984   0.48892947 0.0015792295 0.0015671502          116 
   25900   0.55323794    -7.093823   0.49351311   0.00158788 0.0015621427           48 
   26000   0.58882482   -7.0727052   0.49970871 0.0016016305 0.0015577671           91 
   26100   0.56371662   -7.0850496   0.50221352 0.0016034914 0.0015537203           52 
   26200   0.53741344   -7.0835672   0.50526285 0.0016070701 0.0015499506           46 
   26300   0.59448762   -7.0828042   0.49848714 0.0015794903 0.0015457136          105 
   26400   0.56670916   -7.0605927   0.50004091 0.0015784119 0.0015411553           53 
   26500   0.57794969   -7.0753296   0.50771136 0.0015965766 0.0015372421           88 
   26600   0.57266842   -7.1228213   0.50161019 0.0015714605 0.0015331019           91 
   26700   0.59357434   -7.1131755    0.5000882 0.0015608246 0.0015285923           93 
   26800   0.56380774   -7.0607201   0.50246286 0.0015623845  0.001524139           74 
   26900   0.57524421   -7.0940226   0.50404051 0.0015614638 0.0015195238          108 
   27000   0.56271695   -7.0833392   0.50974415 0.0015732844 0.0015155997          114 
   27100   0.58141724   -7.0673686   0.50601523 0.0015560124 0.0015114099          115 
   27200   0.58004907   -7.0517417   0.50791732 0.0015561192 0.0015072633           52 
   27300   0.55333471   -7.1045378   0.50421978 0.0015391324 0.0015028608          104 
   27400   0.56722731   -7.0904396   0.50791473 0.0015447528 0.0014983749          138 
   27500   0.58488442   -7.1117536   0.50337216 0.0015253702 0.0014938999          124 
   27600   0.59349185   -7.0593998   0.49428158  0.001492396 0.0014886578           85 
   27700   0.55824122   -7.1010998   0.49698546 0.0014951427 0.0014830696          106 
   27800   0.57751344   -7.1011587   0.49309488 0.0014781021 0.0014775315          105 
   27900   0.58558377   -7.0883341   0.49942118    0.0014917 0.0014721175           98 
   28000   0.55058265   -7.1091702   0.49796051 0.0014820253 0.0014668238          103 
   28100   0.58100841   -7.0629314   0.49583776  0.001470456 0.0014613044           97 
   28200   0.56393173   -7.0569951   0.49553065  0.001464334  0.001455706           92 
   28300   0.53992682   -7.0891979    0.5022282 0.0014788816 0.0014502837           81 
   28400   0.56195971   -7.0420347   0.51319743  0.001505861 0.0014457471          116 
   28500   0.57184315   -7.0724212   0.52452394 0.0015336957 0.0014422843          105 
   28600   0.57372823   -7.0753202   0.52716545 0.0015360298 0.0014391334          115 
   28700   0.55915333   -7.0699803   0.52035311 0.0015108975 0.0014358219          112 
   28800    0.6061854   -7.0999615    0.5115472 0.0014801713  0.001431573           99 
   28900   0.54348914   -7.0824235   0.51381396 0.0014815858 0.0014271989           92 
   29000   0.55923713   -7.1010595   0.50988142 0.0014651765 0.0014227035           78 
   29100   0.56424916   -7.0567435   0.51279163 0.0014684754 0.0014180375          106 
   29200   0.56521809   -7.1222219   0.51157313  0.001459969 0.0014134603          117 
   29300   0.57011018   -7.0727909   0.52187549 0.0014842875 0.0014094102           87 
   29400   0.57838716   -7.0764164   0.51696559  0.001465322 0.0014053031           84 
   29500    0.5512112   -7.0827933   0.51528171  0.001455598 0.0014010687          110 
   29600   0.58378811   -7.0897504   0.51554895 0.0014514328 0.0013966686           94 
   29700   0.57390787   -7.0697844   0.51708225 0.0014508481 0.0013922304           97 
   29800   0.54826527   -7.0785551   0.51678751 0.0014451552 0.0013877879           93 
   29900   0.56754998   -7.0524787   0.51367673  0.001431652 0.0013832998           61 
   30000   0.57810696   -7.0862333   0.51149413  0.001420817 0.0013786357           77 
   30100   0.58707311   -7.1168995   0.50771864  0.001405644 0.0013737257           91 
   30200   0.56405481   -7.0696236   0.51298482  0.001415521 0.0013687124           38 
   30300   0.60113995   -7.1201438   0.51069433 0.0014045498 0.0013640277          107 
   30400   0.57369561   -7.0762753   0.51224131 0.0014041702 0.0013590683          111 
   30500   0.59095797   -7.1105136   0.51664634  0.001411602 0.0013545933          108 
   30600   0.59488546   -7.0557278   0.51205306   0.00139448 0.0013499453          107 
   30700   0.56286448   -7.1005731   0.50986295 0.0013839928 0.0013450938           98 
   30800   0.53945208   -7.0705581   0.51447619  0.001391981 0.0013402624           88 
   30900   0.57514123   -7.0607041   0.52016144 0.0014028086 0.0013358309           91 
   31000   0.57659336   -7.0661684   0.52556856 0.0014128187 0.0013319332           50 
   31100   0.55396326   -7.0538355   0.51736942  0.001386306 0.0013277881           91 
   31200   0.54563639   -7.0744739   0.50896031 0.0013594025 0.0013229783           78 
   31300   0.57038267   -7.0797988     0.503741 0.0013411635 0.0013176437           38 
   31400   0.58407567   -7.0642059   0.51102964 0.0013562358 0.0013125464           76 
   31500   0.57552134   -7.1477828   0.51379979 0.0013592587 0.0013077182           78 
   31600   0.55003454   -7.0842493   0.51106828 0.0013477539 0.0013028755           27 
   31700   0.57907147   -7.0736364   0.51041737 0.0013417912 0.0012978678           42 
   31800   0.57177345   -7.1112073   0.50080991 0.0013123949 0.0012925825           44 
   31900   0.55805881   -7.1325882   0.51149361 0.0013361902 0.0012872778           52 
   32000   0.56602117   -7.0700399   0.53002735 0.0013802795 0.0012830549           26 
   32100   0.54464613   -7.0729378   0.53129428 0.0013792686  0.001279471           62 
   32200    0.5557663   -7.1100767   0.52830528 0.0013672497 0.0012757868           53 
   32300   0.59271064   -7.0737104    0.5308828 0.0013696666 0.0012720287           83 
   32400   0.59564916   -7.0804262   0.53314862  0.001371267 0.0012684798           56 
   32500   0.55796861   -7.0450318   0.53035037 0.0013598727 0.0012647481           76 
   32600   0.55415512   -7.0591132    0.5441929 0.0013910861 0.0012613629           85 
   32700   0.57836219   -7.0922175   0.54748627 0.0013952249 0.0012586226           73 
   32800   0.54803345   -7.1422428   0.55702434 0.0014152041 0.0012562709          134 
   32900   0.56976833   -7.0631899   0.54642615 0.0013840581 0.0012537535           78 
   33000   0.57383681   -7.0931785   0.55207144 0.0013941198 0.0012510934          107 
   33100   0.57985095    -7.065844   0.54536995 0.0013730361 0.0012482976          117 
   33200   0.57354221   -7.1268807    0.5449529 0.0013678536 0.0012452356          105 
   33300   0.57383262   -7.0963048   0.53783807 0.0013459411 0.0012419375          107 
   33400   0.57519109   -7.0757357   0.53846255 0.0013434694 0.0012383137           93 
   33500    0.5827702   -7.0660105   0.54849202  0.001364408 0.0012351796          123 
   33600   0.58052089   -7.0987454     0.548552  0.001360496 0.0012322911          124 
   33700   0.56366805   -7.1077181   0.54935276 0.0013584391  0.001229325          137 
   33800    0.5996019   -7.0912783   0.55131806 0.0013592654  0.001226442          146 
   33900   0.58361602    -7.070692    0.5528728 0.0013590777  0.001223734          109 
   34000   0.58528749   -7.1102018   0.55386092 0.0013575022 0.0012209835          126 
   34100    0.5374758   -7.1146447   0.55155131 0.0013478771 0.0012180642          135 
   34200   0.57349024    -7.078073   0.56155005 0.0013682993 0.0012154099          150 
   34300   0.55021294   -7.0985657   0.56539149 0.0013736431 0.0012132218          129 
   34400   0.55859346   -7.0748148    0.5642795 0.0013669561 0.0012110325           65 
   34500   0.58477853   -7.0719982   0.55827196  0.001348483  0.001208604           82 
   34600   0.55274558   -7.0653541   0.55873172  0.001345693 0.0012059903          152 
   34700   0.57242524   -7.0971474     0.561526 0.0013485254 0.0012033594          136 
   34800   0.59270557   -7.0869389   0.56474335 0.0013523547 0.0012008534          191 
   34900   0.55617191   -7.0661732    0.5699316 0.0013608682 0.0011986492          141 
   35000   0.56574141   -7.0983681   0.56403456 0.0013429394 0.0011962524          135 
   35100   0.56667901     -7.09325   0.56492942 0.0013412379 0.0011938381           77 
   35200   0.58020338   -7.0829683   0.56448888 0.0013363847 0.0011914138          130 
   35300   0.54753739    -7.070788   0.56191233 0.0013265163 0.0011888738          135 
   35400   0.56632185   -7.0925461   0.55814456 0.0013138996 0.0011859956          135 
   35500   0.58374437   -7.0592135   0.56455125 0.0013252377 0.0011832625          111 
   35600   0.58598107    -7.107843   0.56206461 0.0013156943 0.0011806981           62 
   35700   0.57623401   -7.1053135   0.55579719  0.001297379 0.0011778124           81 
   35800   0.54366259   -7.0696787   0.55930303 0.0013019158 0.0011747795          107 
   35900   0.57599156   -7.0806207    0.5653912 0.0013124215 0.0011720716          157 
   36000   0.57449489   -7.1096826   0.55984142 0.0012959292 0.0011693329          156 
   36100   0.58429052   -7.1055539    0.5612556 0.0012956039 0.0011665075          159 
   36200   0.58844338   -7.0847471   0.56270843 0.0012953693  0.001163722          137 
   36300   0.58271842   -7.0828989   0.56470375 0.0012963814 0.0011609963          134 
   36400   0.56535232   -7.0980647   0.56617517 0.0012961886 0.0011584035          160 
   36500   0.55155578   -7.0783266   0.57729082 0.0013180156  0.001155939          181 
   36600   0.56054468   -7.0686714   0.58104273  0.001322957 0.0011538082          152 
   36700   0.55034687   -7.0786939   0.57217422 0.0012992148 0.0011515682          115 
   36800   0.57425695   -7.0977425   0.57091701 0.0012928374 0.0011491365          162 
   36900   0.60322048   -7.1127247   0.56707707 0.0012806618 0.0011464326          158 
   37000   0.58720918   -7.1024739   0.56932894 0.0012822724 0.0011438292          135 
   37100   0.57787485   -7.0678117   0.57372525  0.001288691 0.0011413102          116 
   37200   0.55332339   -7.0671501   0.57606663 0.0012904718 0.0011388948           64 
   37300   0.54946793   -7.0597104   0.57437568 0.0012832343 0.0011364254          141 
   37400   0.57218074   -7.1002054   0.57152275 0.0012734464 0.0011339719          144 
   37500   0.57479872   -7.0917493   0.56877124 0.0012639361 0.0011313354          162 
   37600   0.57411903   -7.1138846    0.5756744 0.0012758741 0.0011288391          172 
   37700   0.58239543   -7.0796676   0.57649852 0.0012743115 0.0011264906          141 
   37800   0.58174329   -7.1122307   0.58416711 0.0012878463 0.0011241579          140 
   37900   0.54995339   -7.0694001   0.59509181 0.0013084692 0.0011223534          183 
   38000   0.56529955   -7.1563192   0.60513284 0.0013270457 0.0011209205          165 
   38100   0.56508257   -7.0826172   0.60562363 0.0013246361 0.0011196775          173 
   38200   0.55609466    -7.066516   0.60894601 0.0013284162 0.0011183943          152 
   38300   0.60863168   -7.0946579   0.60424752 0.0013147248 0.0011171644          154 
   38400   0.58063005   -7.1152007   0.59621904 0.0012938781 0.0011155917          153 
   38500   0.56380128   -7.1020356   0.59889953 0.0012963193   0.00111387          182 
   38600   0.56471409   -7.1007068   0.60333899 0.0013025453  0.001112209          171 
   38700   0.57511081   -7.1105723   0.60102908 0.0012942056 0.0011107584          175 
   38800    0.5922552   -7.0529751   0.59383245 0.0012754133 0.0011088675          189 
   38900   0.56801674   -7.0724847   0.60512327 0.0012963223  0.001107215          178 
   39000   0.57269518   -7.1080787   0.61247701 0.0013087116 0.0011057806          174 
   39100   0.54142773   -7.1118178   0.60989909 0.0012998702 0.0011044886          178 
   39200   0.57414842   -7.0982755   0.61144479 0.0012998401 0.0011030309          183 
   39300   0.57971585   -7.0842409   0.61331145 0.0013004908 0.0011017607          208 
   39400   0.56919102   -7.1004874   0.60876719 0.0012875786 0.0011002534          205 
   39500    0.5752583   -7.1313346   0.61185929 0.0012908424 0.0010988232          195 
   39600   0.58880341   -7.0907247   0.60842228 0.0012803499 0.0010973653          194 
   39700   0.57744468   -7.0939422   0.60364468 0.0012670963 0.0010957068          187 
   39800   0.55612332   -7.1088782   0.60431977 0.0012653261 0.0010939161          164 
   39900   0.54002994   -7.1121958   0.59262246 0.0012377244 0.0010918151          182 
   40000   0.57083417   -7.1033487   0.59573402 0.0012411125  0.001089655          157 
   40100   0.55462119   -7.1038165   0.59892105 0.0012446406 0.0010875001          189 
   40200   0.53530641   -7.1401321   0.60676567 0.0012578061 0.0010856299          204 
   40300   0.56961572   -7.1253768    0.6044663 0.0012499303 0.0010837954          182 
   40400   0.57980225   -7.0857195   0.60931261 0.0012568329 0.0010819725          202 
   40500    0.5681186   -7.0786484    0.6090579 0.0012532055 0.0010802916          212 
   40600   0.56244094    -7.102517   0.61651658 0.0012654281 0.0010786675          205 
   40700   0.60624968   -7.1216155   0.61959996 0.0012686322 0.0010772417          170 
   40800   0.56216219   -7.0793517   0.61441638 0.0012549354 0.0010757576          184 
   40900   0.56563845   -7.1610038   0.61312326 0.0012492324 0.0010741468          229 
   41000   0.54790606   -7.0813424    0.6097523 0.0012393339  0.001072358          250 
   41100   0.57248616   -7.0975585    0.6085096 0.0012337988 0.0010705296          229 
   41200   0.56141153   -7.1460839   0.61911058 0.0012522463 0.0010688202          217 
   41300   0.55915324   -7.1139115   0.62102039 0.0012530678 0.0010674072          245 
   41400   0.56892831   -7.1369792    0.6187552 0.0012454815 0.0010658288          250 
   41500   0.55305318   -7.1101435   0.61291035 0.0012307437 0.0010641433          239 
   41600   0.57470449   -7.1246399   0.62001279 0.0012420128 0.0010623682          264 
   41700   0.59414906   -7.1178159   0.62770148 0.0012543994 0.0010609813          276 
   41800   0.56241105   -7.1380721   0.62894985 0.0012538872 0.0010596724          298 
   41900   0.53729643   -7.1278949   0.64142961 0.0012757152 0.0010585316          310 
   42000   0.59084667   -7.1332136   0.65825057 0.0013060527 0.0010580141          329 
   42100   0.55194719   -7.1194049   0.65648473 0.0012994551 0.0010575855          329 
   42200   0.57078413   -7.1350085   0.66016599 0.0013036453 0.0010572287          352 
   42300   0.58482953   -7.1308774   0.65365647 0.0012877393 0.0010567859          320 
   42400   0.58610357   -7.1525919   0.66097072 0.0012990777 0.0010563587          294 
   42500   0.57403204    -7.098633    0.6591656 0.0012924816 0.0010559253          269 
   42600    0.5741139   -7.1052964   0.66201406 0.0012950197 0.0010554326          278 
   42700    0.5497143   -7.0975007   0.66152327  0.001291029 0.0010550038          303 
   42800   0.57043585   -7.1618321   0.65568632 0.0012766478 0.0010543897          342 
   42900   0.55809261   -7.1641401   0.65730618 0.0012768185 0.0010536789          360 
   43000   0.57957783   -7.1483501    0.6604272 0.0012798977 0.0010530545          336 
   43100    0.5893743    -7.168534   0.65524341 0.0012669053 0.0010523416          355 
   43200   0.57272932   -7.1441153   0.65288773 0.0012594285 0.0010514779          381 
   43300   0.56077893   -7.1242958   0.65198667 0.0012547857 0.0010505542          363 
   43400    0.5719494   -7.1261088   0.65446095 0.0012566454 0.0010495537          325 
   43500   0.55704239   -7.1744345   0.66112181 0.0012665169 0.0010487769          375 
   43600   0.57667212    -7.165617   0.66298697 0.0012671769 0.0010481418          390 
   43700   0.58058706   -7.1664222   0.65611684 0.0012511763 0.0010472901          375 
   43800    0.5885514   -7.1139658   0.65962174 0.0012549881 0.0010464166          353 
   43900    0.5588416    -7.134414   0.66810486 0.0012682324 0.0010456363          375 
   44000   0.56900566   -7.1715252   0.66951616  0.001268023 0.0010450368          345 
   44100   0.55624637    -7.180512    0.6670135 0.0012604186 0.0010444024          381 
   44200   0.57117793   -7.1157489   0.66722876 0.0012579728 0.0010436879          383 
   44300   0.56146948   -7.1657504   0.66795107 0.0012564918 0.0010429384          379 
   44400   0.54143651   -7.1957574   0.66885094 0.0012553509 0.0010421619          387 
   44500   0.57916949   -7.1619099   0.66400821  0.001243461 0.0010413249          360 
   44600   0.59478234   -7.1719504   0.67050361 0.0012528094 0.0010405365          388 
   44700   0.56879539   -7.1791821   0.67092999 0.0012508016  0.001039757          369 
   44800   0.53299563   -7.1994309   0.66680583 0.0012403382  0.001038894          377 
   44900   0.55130521   -7.1778241   0.66140154 0.0012275455  0.001037876          376 
   45000   0.57248036   -7.1447722   0.65806406 0.0012186371 0.0010367536          400 
   45100   0.56257638   -7.1226041   0.65550869 0.0012112134 0.0010354948          415 
   45200   0.55913208   -7.2288489   0.64953178 0.0011975143 0.0010340559          442 
   45300   0.56986534   -7.1528941    0.6537376 0.0012026078 0.0010326046          437 
   45400    0.5657258   -7.1720693   0.67012388 0.0012300365 0.0010314403          449 
   45500   0.57297551   -7.1375714   0.67420028  0.001234799 0.0010305394          441 
   45600   0.57411223   -7.1738071   0.66867968 0.0012220023 0.0010295642          436 
   45700   0.54267873   -7.1719827   0.68130408 0.0012423488 0.0010287157          452 
   45800   0.54793528   -7.1184108   0.68529567 0.0012468989 0.0010281183          452 
   45900   0.56605601   -7.1474287   0.68535846 0.0012442964 0.0010274812          463 
   46000   0.55370241   -7.1709305   0.68340945 0.0012380606 0.0010268347          444 
   46100   0.55920262   -7.1722527   0.68493861 0.0012381392  0.001026144          447 
   46200   0.56991477   -7.1466116   0.68311166 0.0012321639 0.0010253582          446 
   46300   0.57308304   -7.1910325   0.69633555 0.0012533037 0.0010248414          444 
   46400   0.56858162   -7.1891111   0.69402777 0.0012464579 0.0010243561          441 
   46500   0.56845386   -7.1431172   0.69186558 0.0012399025  0.001023862          442 
   46600   0.56427555   -7.1540141   0.68587251 0.0012265245 0.0010231256          446 
   46700   0.58190881   -7.2004008   0.69035636 0.0012318993 0.0010223925          452 
   46800   0.55034391   -7.1666926   0.69541877 0.0012382813 0.0010217659          458 
   46900   0.58113385    -7.134081    0.7026892 0.0012485593 0.0010213273          451 
   47000   0.55061148   -7.1929817   0.71346536 0.0012650095 0.0010210587          504 
   47100   0.56896259   -7.2000525   0.71237034 0.0012603863 0.0010208846          509 
   47200   0.57898441   -7.1995734     0.710653  0.001254684 0.0010206671          511 
   47300   0.57321995   -7.2137013   0.71722333  0.001263607 0.0010204552          519 
   47400    0.5718861   -7.1773004   0.72127061 0.0012680566 0.0010203513          554 
   47500   0.58416214   -7.2395721   0.72118952 0.0012652448 0.0010203337          551 
   47600   0.53488789   -7.2064224   0.72298743 0.0012657343 0.0010202342          566 
   47700   0.57681643   -7.2133855   0.73493359  0.001283951 0.0010203858          595 
   47800   0.56346642   -7.2024246    0.7350061 0.0012813914  0.001020528          625 
   47900   0.56498181   -7.2482191   0.74808133 0.0013014637 0.0010208837          622 
   48000   0.56208036   -7.2467856   0.75443998 0.0013097916 0.0010214614          622 
   48100    0.5797495   -7.2279485   0.75949078 0.0013158191 0.0010220828          621 
   48200   0.60838634   -7.2638214   0.76065586 0.0013151035 0.0010227783          635 
   48300   0.57294227    -7.231765   0.75693015 0.0013059526 0.0010233973          634 
   48400   0.55688134   -7.2850607   0.75224479 0.0012951873 0.0010238839          654 
   48500   0.55745075   -7.2450797   0.75026524 0.0012891155 0.0010242795          655 
   48600   0.60492595   -7.2611405   0.75724062 0.0012984236 0.0010246578          665 
   48700    0.5483338   -7.2551493   0.76419916 0.0013076645 0.0010252093          688 
   48800   0.56569256   -7.2531819   0.76148411 0.0013003485 0.0010257411          724 
   48900   0.60034173   -7.2876937   0.76313016 0.0013004945 0.0010262031          723 
   49000   0.57069726   -7.2953539   0.77524557 0.0013184448 0.0010268167          757 
   49100   0.56233297   -7.3197897   0.79101061 0.0013425163 0.0010277279          767 
   49200   0.58967838   -7.3340762   0.79367408 0.0013442989 0.0010288329          788 
   49300   0.56586071   -7.4064043   0.80806994 0.0013659059 0.0010301074          802 
   49400   0.59032801   -7.3881035   0.81805386 0.0013799829 0.0010316264          790 
   49500   0.58465049   -7.3302103   0.83605559  0.001407501 0.0010334787          790 
   49600   0.54961319   -7.4032063   0.84183158 0.0014143676 0.0010354933          780 
   49700   0.54997149   -7.3746341   0.84522404   0.00141721 0.0010375595          774 
   49800   0.59683091   -7.3987472   0.85269735 0.0014268697 0.0010397282          802 
   49900   0.54909776   -7.3698696   0.85331577  0.001425043 0.0010419228          791 
   50000   0.57609929   -7.4158286   0.86033552 0.0014338925 0.0010442276          792 
   50100    0.5454358   -7.4345192   0.85841943 0.0014278433 0.0010464373          801 
   50200   0.55409696   -7.4036847   0.86408133 0.0014343979 0.0010487165          802 
   50300   0.57424242   -7.4338387   0.86771377 0.0014375642 0.0010509769          818 
   50400    0.5798286   -7.4529168    0.8740188 0.0014451369 0.0010533395          820 
   50500   0.56125811   -7.4702589   0.88404538 0.0014588207 0.0010558332          819 
   50600   0.59786491   -7.4324738   0.87907845 0.0014477576 0.0010582792          834 
   50700   0.57288164   -7.4435654   0.88763686 0.0014589692 0.0010606782          829 
   50800   0.53678774   -7.4221081   0.88998659 0.0014599517 0.0010631822          820 
   50900   0.58113542   -7.4383689   0.90009592 0.0014736344  0.001065748          829 
   51000   0.56581469   -7.4455817   0.91119235 0.0014888764 0.0010685107          844 
   51100   0.54591765   -7.4352084   0.92001937 0.0015003577 0.0010714009          837 
   51200   0.56281819   -7.4632206   0.91544413 0.0014899807 0.0010741978          836 
   51300   0.59197606   -7.4658658   0.92564788 0.0015036515 0.0010771593          835 
   51400   0.56069223   -7.4894172   0.93004555 0.0015078559 0.0010801541          832 
   51500   0.57132226   -7.4714652   0.92792458 0.0015014961 0.0010830939          828 
   51600   0.57025208    -7.459911   0.93431379 0.0015089047 0.0010860325          841 
   51700   0.54601799    -7.507654   0.93603679 0.0015087634 0.0010889666          835 
   51800   0.59477104   -7.5006742   0.93602592 0.0015058332 0.0010918858          838 
   51900   0.60631071   -7.4836275   0.94413213 0.0015159475 0.0010948693          836 
   52000   0.57232383   -7.4899326   0.95047568 0.0015231982 0.0010978439          840 
   52100   0.57625689   -7.5199881    0.9368285 0.0014984461 0.0011006973          840 
   52200   0.59004606   -7.4979976   0.94695538 0.0015117423 0.0011034608          825 
   52300   0.58027781   -7.4684092   0.93798413 0.0014945572 0.0011061763          832 
   52400   0.57910818   -7.5336404   0.94462456 0.0015022655 0.0011087846          836 
   52500    0.5345115    -7.473313   0.95028935 0.0015083958 0.0011115222          834 
   52600   0.58938686   -7.5260264   0.95400063 0.0015114078 0.0011142392          842 
   52700   0.56637362   -7.5139994   0.94747691 0.0014982241 0.0011169138          841 
   52800   0.56080325   -7.6042496   0.94323921 0.0014886982  0.001119411          840 
   52900   0.55466936   -7.5621298    0.9482448 0.0014937694 0.0011218206          842 
   53000   0.57708538   -7.5584958   0.95758865 0.0015056425 0.0011243392          849 
   53100   0.56555788   -7.5113401   0.97951975 0.0015372249 0.0011271435          848 
   53200   0.59356887   -7.5107463   0.97639932 0.0015294475 0.0011300861          849 
   53300    0.5571623   -7.5240586   0.97652731 0.0015267781 0.0011328551          842 
   53400   0.54793085   -7.5481918   0.97698108 0.0015246271 0.0011356197          836 
   53500   0.59075224   -7.5080413   0.96832637 0.0015082965  0.001138262          844 
   53600   0.57062039   -7.5084743   0.96947841 0.0015072736 0.0011406976          841 
   53700   0.55455666   -7.5384729   0.97077534 0.0015064794  0.001143195          835 
   53800   0.59533253   -7.5443437   0.96351435 0.0014924324 0.0011455102          846 
   53900   0.59413665   -7.5599078   0.96747099 0.0014957807 0.0011477737          841 
   54000    0.5424362   -7.5301898   0.98182468 0.0015151615 0.0011501824          842 
   54100   0.57593963   -7.5015201   0.98030419 0.0015100188 0.0011526692          845 
   54200   0.56608044   -7.5173929   0.97546849 0.0014997978 0.0011549706          841 
   54300   0.56209839   -7.5386932   0.97844912   0.00150161 0.0011571771          835 
   54400   0.56627106   -7.5579115   0.97179154 0.0014886512 0.0011593525          839 
   54500   0.57992943   -7.5392317   0.96956099 0.0014825091 0.0011613363          837 
   54600   0.57783278   -7.5362148   0.97398148 0.0014865407 0.0011633781          838 
   54700   0.58744201   -7.5247108   0.97317581 0.0014825957 0.0011653053          842 
   54800   0.55981984   -7.5673433   0.98646136 0.0015000933 0.0011673964          842 
   54900   0.55157366   -7.5151625   0.98049672 0.0014883071  0.001169504          843 
   55000   0.56558605   -7.4878615   0.97861152 0.0014827447 0.0011714393          834 
   55100    0.5520845   -7.5259256   0.97774611 0.0014787449 0.0011733219          842 
   55200   0.53964725   -7.4969127   0.98268401 0.0014835205 0.0011751162          831 
   55300   0.58580388   -7.5151494   0.97227196 0.0014651476 0.0011769062          838 
   55400   0.56202784   -7.5092953   0.96546536 0.0014522644 0.0011783984          848 
   55500   0.55932351   -7.5748843   0.97338288 0.0014615358 0.0011799268          851 
   55600   0.52856401   -7.5846675   0.97890332 0.0014671812 0.0011815489          847 
   55700   0.55059744   -7.5786722    0.9938111 0.0014868508 0.0011832668          841 
   55800   0.58030006    -7.543226    1.0021203 0.0014965954  0.001185193          840 
   55900   0.61577841   -7.5372893   0.99385989 0.0014816039  0.001187077          843 
   56000   0.56313764   -7.5378236     1.008911 0.0015013556 0.0011889726          850 
   56100   0.56257733   -7.5493847    0.9947349 0.0014776216 0.0011908052          853 
   56200   0.58947165   -7.5407979    0.9892249 0.0014668222 0.0011923575          853 
   56300   0.57361228   -7.5240882    0.9924912 0.0014690515 0.0011939776          858 
   56400   0.56090221   -7.5473331   0.99246849 0.0014664132 0.0011954239          856 
   56500   0.57759155   -7.5642395    1.0007057 0.0014759671 0.0011969974          850 
   56600   0.56412294   -7.5347111     1.002775  0.001476406 0.0011985909          852 
   56700   0.56867657   -7.5822006     1.000138 0.0014699265 0.0012001634          847 
   56800   0.59781958   -7.5471916    0.9908754 0.0014537491 0.0012015666          849 
   56900   0.57519747    -7.558063   0.99158482 0.0014522332 0.0012029173          847 
   57000    0.5723726   -7.5819477   0.99332011 0.0014522224 0.0012041672          843 
   57100   0.59319287   -7.5359679   0.99413576 0.0014508695 0.0012054667          845 
   57200   0.56951164   -7.5771609    1.0007157 0.0014579191 0.0012067936          845 
   57300   0.57019805   -7.5547263   0.98674905 0.0014350626 0.0012079899          836 
   57400   0.57102052   -7.5416746   0.98654526 0.0014322666 0.0012089543          847 
   57500   0.57001407   -7.5278399   0.99681682  0.001444662 0.0012100811          855 
   57600   0.56689976   -7.5904765   0.99090917  0.001433607  0.001211129          854 
   57700   0.57891017   -7.5315092   0.99619883  0.001438762 0.0012121637          844 
   57800   0.54708309   -7.5467707   0.99790827 0.0014387374 0.0012132316          847 
   57900   0.54632046   -7.5464195   0.99204038 0.0014278071 0.0012142036          848 
   58000   0.58698455   -7.5435312   0.99722496 0.0014327945 0.0012150471          854 
   58100   0.55692437   -7.5210116   0.99181748 0.0014225724 0.0012159856          854 
   58200   0.57912436   -7.5685619    1.0020547 0.0014347862 0.0012168826          859 
   58300   0.55910543   -7.5688686    1.0082197 0.0014411373 0.0012179323          860 
   58400   0.59672171   -7.5535614    1.0266553 0.0014649761 0.0012190944          859 
   58500   0.57701604   -7.5628467      1.03463 0.0014738319 0.0012205115          857 
   58600   0.54411775   -7.5722245    1.0271703 0.0014607086 0.0012218076          858 
   58700   0.56227355   -7.5221717    1.0161141 0.0014425243 0.0012229641          861 
   58800   0.55661237   -7.5620281    1.0188143 0.0014438978 0.0012239927          860 
   58900   0.59239183   -7.5264682    1.0137718 0.0014343121 0.0012249536          853 
   59000   0.60000492   -7.5837615    1.0078715 0.0014235474 0.0012258305          856 
   59100   0.58508047   -7.5916547    1.0033521 0.0014147661 0.0012265282          861 
   59200   0.58576016   -7.5482501    1.0145338 0.0014281162 0.0012273117          852 
   59300   0.57418693    -7.532168    1.0133721 0.0014240755 0.0012281589          853 
   59400   0.54732691   -7.5571291    1.0208436   0.00143216 0.0012289977          851 
   59500   0.56880473   -7.5644782    1.0123523 0.0014178603 0.0012297516          846 
   59600   0.58296098   -7.5504565    1.0119926 0.0014149784 0.0012304297          853 
   59700   0.57412373   -7.5441592    1.0066434 0.0014051415  0.001231019          856 
   59800   0.56340368    -7.560784     1.010335 0.0014079361 0.0012316445          856 
   59900   0.59285072   -7.5536719     1.010334 0.0014055844 0.0012321978          853 
   60000   0.59829924   -7.5201759    1.0059018 0.0013970858 0.0012327282          850 
   60100   0.56559065   -7.5827174   0.99953987 0.0013859399 0.0012331117          853 
   60200   0.57989425   -7.5353436    1.0126184  0.001401742 0.0012334943          852 
   60300   0.56253883   -7.5484046    1.0149081 0.0014025816 0.0012340015          855 
   60400   0.56545823   -7.5339233    1.0122108  0.001396538 0.0012344957          861 
   60500    0.5739422    -7.564038     1.021623 0.0014071942 0.0012349826          858 
   60600   0.57851079   -7.5447158     1.009992 0.0013888778 0.0012353884          857 
   60700   0.58675712   -7.5376479    1.0087029   0.00138482 0.0012356752          855 
   60800   0.54493554    -7.532123    1.0149267 0.0013910727 0.0012359903          855 
   60900   0.55588676   -7.5419473    1.0036679 0.0013733825 0.0012362947          857 
   61000    0.5505791   -7.5715844    1.0005144 0.0013668229 0.0012363586          861 
   61100   0.57626605   -7.5678689    1.0044119 0.0013699016 0.0012364852          858 
   61200   0.57865842   -7.5255252    1.0162933 0.0013838416 0.0012367533          859 
   61300   0.57230419    -7.550928    1.0181429 0.0013840986  0.001237062          855 
   61400   0.58553634   -7.5565725    1.0110831 0.0013722626 0.0012372902          854 
   61500   0.56246141    -7.576596    1.0142298 0.0013742952 0.0012374353          859 
   61600   0.57599947   -7.5374785    1.0178747  0.001376995 0.0012376386          852 
   61700   0.57288863    -7.537022    1.0053158 0.0013578009 0.0012377314          854 
   61800   0.55446385   -7.5760747    1.0128461 0.0013657579 0.0012377666          859 
   61900   0.54933599   -7.5707184    1.0019964 0.0013489451 0.0012377778          858 
   62000   0.54908326   -7.5323069    1.0073059 0.0013539058 0.0012376819          853 
   62100   0.58076302   -7.5656543    1.0021608 0.0013448212 0.0012376117          860 
   62200   0.56661316   -7.5740424    1.0042083 0.0013454023  0.001237462          852 
   62300   0.55872956   -7.5772064    1.0113291 0.0013527677 0.0012374093          848 
   62400   0.55918777   -7.5439834    1.0226641 0.0013657373 0.0012374279          850 
   62500   0.57292134   -7.5510083    1.0161018 0.0013548023 0.0012375385          855 
   62600   0.56320666   -7.5823029    1.0214152 0.0013597113 0.0012375227          855 
   62700     0.585157   -7.5700644    1.0244872 0.0013616257 0.0012375725          855 
   62800   0.59983873   -7.5738615    1.0232218 0.0013577784 0.0012376643          857 
   62900   0.56450571   -7.6097724    1.0214348 0.0013532522 0.0012376277          860 
   63000   0.57359144   -7.5576496    1.0247599 0.0013555026 0.0012376012          855 
   63100   0.58907173   -7.5339003    1.0276205 0.0013571322 0.0012376368          853 
   63200   0.57524123   -7.5760356     1.034877  0.001364553 0.0012377028          855 
   63300   0.57445894   -7.5480872    1.0244024 0.0013486077 0.0012376565          860 
   63400   0.57381556   -7.6189555    1.0311997 0.0013554149  0.001237632          860 
   63500   0.54497163   -7.5615126    1.0343107 0.0013573631 0.0012376797          862 
   63600   0.59402674   -7.5974448    1.0464425 0.0013711249 0.0012378219          862 
   63700   0.56146523   -7.5583487     1.042663 0.0013640279 0.0012379671          860 
   63800   0.58882094   -7.5800521    1.0474482 0.0013681403 0.0012380741          861 
   63900   0.55357341   -7.5811559    1.0488265 0.0013677967 0.0012382375          860 
   64000    0.5694015   -7.5546804    1.0438897 0.0013592313 0.0012382876          856 
   64100   0.55625335   -7.5535979    1.0495549 0.0013644759 0.0012383766          860 
   64200   0.56307623    -7.598478    1.0475553  0.001359755 0.0012384622          859 
   64300   0.55431408   -7.5427626     1.041969 0.0013504005 0.0012384908          861 
   64400   0.56458419   -7.5596549    1.0445608 0.0013516573 0.0012384632          858 
   64500   0.55624644   -7.5518906    1.0465033 0.0013520715 0.0012384311          856 
   64600    0.5801254   -7.5550952    1.0452594 0.0013483738 0.0012384038          859 
   64700   0.55727423   -7.5785896    1.0312342 0.0013282253 0.0012382534          861 
   64800   0.56928877   -7.5817415     1.032848  0.001328251  0.001238006          862 
   64900   0.58075475    -7.572343    1.0304048 0.0013230672 0.0012377511          860 
   65000   0.55492415   -7.5426614    1.0278624 0.0013177723 0.0012374185          855 
   65100   0.56109811   -7.6192044    1.0276075 0.0013154218 0.0012370473          861 
   65200   0.58219982   -7.5729251    1.0428739 0.0013329166 0.0012367389          858 
   65300   0.58265038   -7.5874869    1.0530506 0.0013438624 0.0012366534          860 
   65400   0.57891686   -7.6192118    1.0505017 0.0013385598  0.001236559          859 
   65500   0.60395792   -7.5697234    1.0392198 0.0013221626 0.0012363711          856 
   65600   0.57475323   -7.5988637    1.0478997 0.0013311733 0.0012361221          858 
   65700   0.52195153   -7.5447717    1.0461116 0.0013268793 0.0012359019          858 
   65800   0.56775954   -7.5667014    1.0347384  0.001310459 0.0012355731          856 
   65900   0.57708914   -7.5673839    1.0493211 0.0013269108 0.0012352442          857 
   66000   0.55067909   -7.5743858    1.0493949 0.0013249935 0.0012350373          862 
   66100   0.55529933     -7.58243    1.0518943 0.0013261401  0.001234804          858 
   66200   0.57042444   -7.5712631    1.0500315 0.0013217919 0.0012345962          861 
   66300   0.54608525   -7.5796242    1.0437805 0.0013119412 0.0012341914          861 
   66400   0.56313545   -7.5660677    1.0396822  0.001304822 0.0012338179          859 
   66500   0.55614995   -7.5728959    1.0379945  0.001300745 0.0012333502          862 
   66600    0.5456995   -7.6003811    1.0475332 0.0013107272  0.001232894          862 
   66700   0.56370946   -7.5701628     1.047242 0.0013083982 0.0012325442          858 
   66800   0.58384416   -7.5533028    1.0467882 0.0013058735 0.0012321762          860 
   66900   0.57411366   -7.6067949    1.0480061 0.0013054386 0.0012317844          858 
   67000   0.57498836   -7.5600347    1.0552825 0.0013125404 0.0012314123          859 
   67100    0.5944795   -7.6038058    1.0462382  0.001299352 0.0012310509          860 
   67200   0.56772202   -7.5796072    1.0431539 0.0012935936 0.0012305432          864 
   67300   0.57058736   -7.6041768    1.0356192 0.0012823418 0.0012299816          860 
   67400   0.57275749   -7.5587999     1.043006 0.0012895721 0.0012293829          861 
   67500   0.52959667   -7.5854847    1.0575135 0.0013055722 0.0012289637          859 
   67600   0.54808609   -7.5901652    1.0511191 0.0012957582 0.0012285315          858 
   67700   0.57582464   -7.5365258    1.0509766 0.0012936688 0.0012280272          861 
   67800   0.56503066   -7.5608229    1.0524101 0.0012935227 0.0012275741          862 
   67900     0.543833   -7.5559429    1.0448241 0.0012823074 0.0012270419          861 
   68000   0.58081969   -7.5870065    1.0468498 0.0012829041 0.0012264059          861 
   68100   0.54527809   -7.5732462    1.0560727 0.0012923063 0.0012259156          860 
   68200   0.57128564   -7.5793725    1.0679073  0.001304872 0.0012255049          855 
   68300   0.56447128    -7.520839    1.0656885 0.0013002544 0.0012251542          860 
   68400   0.57551918   -7.6160701    1.0654734 0.0012980913 0.0012247851          860 
   68500   0.56279552   -7.6020753    1.0590593 0.0012883933 0.0012243363          859 
   68600   0.58297447    -7.574901    1.0504552 0.0012760631  0.001223779          859 
   68700   0.57762986   -7.5772006     1.068226 0.0012957618 0.0012232935          857 
   68800   0.54935744   -7.5978022     1.074185 0.0013010961  0.001222976          861 
   68900   0.55286025   -7.5513545     1.060789 0.0012830056 0.0012225151          859 
   69000   0.59412303   -7.5454026    1.0724929 0.0012952813 0.0012220614          856 
   69100   0.55038108   -7.5417982    1.0602718 0.0012786683 0.0012216088          862 
   69200   0.54685708   -7.5519067    1.0514307 0.0012661737 0.0012209996          858 
   69300   0.57900383   -7.6082483    1.0602806 0.0012749887 0.0012203569          858 
   69400   0.56370869    -7.567597    1.0676314 0.0012819781  0.001219848          860 
   69500   0.56604206   -7.5902118    1.0790647 0.0012938425 0.0012194073          857 
   69600   0.54925009   -7.5651628    1.0747671 0.0012868381 0.0012190012          858 
   69700   0.54725282   -7.6236357    1.0798866 0.0012911126 0.0012186253          864 
   69800   0.54363288   -7.5641451    1.0663116 0.0012730559 0.0012181322          862 
   69900    0.5658668   -7.5478561    1.0706161 0.0012763663 0.0012175579          858 
   70000   0.53217375   -7.6201608    1.0778752 0.0012831848 0.0012170767          859 
   70100   0.55667697   -7.5566423    1.0829156 0.0012873461 0.0012166427          860 
   70200   0.57768323   -7.6078112    1.0878728  0.001291397  0.001216248          860 
   70300   0.56125089   -7.5735164    1.0710391 0.0012696054  0.001215752          858 
   70400   0.55585256   -7.5890653     1.066656 0.0012626136 0.0012151369          858 
   70500   0.55249105   -7.5445909    1.0684418 0.0012629336 0.0012145254          862 
   70600   0.57787745   -7.6097534     1.062635 0.0012542906 0.0012138673          862 
   70700   0.58181903    -7.613823    1.0732024 0.0012649722 0.0012132296          860 
   70800   0.55775513   -7.5590635    1.0654151 0.0012540197 0.0012125924          861 
   70900   0.52687949   -7.6238747    1.0753493 0.0012639273 0.0012119564          860 
   71000   0.53320895   -7.5730597    1.0710018 0.0012570443 0.0012113118          859 
   71100    0.5757031   -7.5626649    1.0638833 0.0012469331 0.0012106108          858 
   71200   0.55310659   -7.6451747    1.0604577 0.0012411724 0.0012098627          858 
   71300   0.55392536   -7.5895033    1.0532133 0.0012309646 0.0012090097          860 
   71400   0.57350577   -7.5996557    1.0596734 0.0012367804 0.0012082085          854 
   71500   0.56257458   -7.6014376    1.0631963 0.0012391565  0.001207428          861 
   71600   0.53990612    -7.606319    1.0573333 0.0012306021 0.0012066051          857 
   71700   0.55278357   -7.5732406    1.0630475 0.0012355271 0.0012057798          858 
   71800   0.57617754   -7.5744532    1.0670931 0.0012385017 0.0012049796          858 
   71900   0.58541545   -7.6388973    1.0667178 0.0012363442 0.0012042296          860 
   72000   0.55845755   -7.5982591    1.0725535 0.0012413814  0.001203442          856 
   72100   0.58425883   -7.6039951    1.0898251 0.0012596222 0.0012028553          857 
   72200   0.57850829    -7.570809    1.0696808 0.0012346269 0.0012021852          859 
   72300   0.56826984   -7.6191825    1.0741992 0.0012381273 0.0012014272          860 
   72400   0.55341356   -7.5905688    1.0727955 0.0012348014 0.0012006754          859 
   72500   0.58440371   -7.5868474    1.0799918 0.0012413699 0.0011999771          860 
   72600   0.61705573   -7.6204825    1.0792892 0.0012388536 0.0011992737          856 
   72700   0.58561903   -7.6178056    1.0690632 0.0012254278 0.0011985225          855 
   72800   0.57079427   -7.5615139    1.0669846 0.0012213651 0.0011976411          852 
   72900   0.56502869   -7.5488141    1.0675851 0.0012203762 0.0011967998          858 
   73000   0.56072035   -7.6164421     1.067009 0.0012180468 0.0011959594          859 
   73100   0.56555564   -7.5836101    1.0700666 0.0012198661 0.0011950987          859 
   73200   0.56836651   -7.5391264    1.0740801 0.0012227687 0.0011942858          859 
   73300   0.57029912   -7.5472416    1.0724667 0.0012192664 0.0011934805          860 
   73400   0.56403492    -7.568972    1.0669264 0.0012113151 0.0011926297          862 
   73500    0.5638643   -7.6144798    1.0736859 0.0012173309 0.0011917523          861 
   73600   0.58220535   -7.5787443    1.0738583 0.0012158722  0.001190912          861 
   73700   0.57857601   -7.5817731    1.0745973  0.001215058 0.0011900776          860 
   73800   0.58565258   -7.6325203    1.0764306 0.0012154817 0.0011892512          862 
   73900   0.56602977   -7.5574737    1.0635664 0.0011993306 0.0011883225          859 
   74000   0.57628148   -7.5816558    1.0613554   0.00119522 0.0011873444          856 
   74100    0.5555024   -7.5887195     1.075511 0.0012095265 0.0011864157          858 
   74200   0.58190255   -7.5519665    1.0714888 0.0012033791 0.0011855759          861 
   74300   0.58821138   -7.5853227    1.0707285 0.0012009068 0.0011846485          863 
   74400   0.56299003   -7.6082826    1.0762831 0.0012055143 0.0011837681          862 
   74500    0.5719697   -7.6045448    1.0712037 0.0011982145  0.001182843          863 
   74600   0.57967219   -7.5716147    1.0711451 0.0011965428  0.001181916          858 
   74700   0.55260632   -7.5402821    1.0695696 0.0011931834 0.0011809769          859 
   74800   0.56305102   -7.6408356    1.0671198  0.001188859 0.0011799872          861 
   74900   0.56234082   -7.5759039    1.0659092 0.0011859248 0.0011789567          863 
   75000   0.57932931    -7.594033    1.0850818 0.0012056465 0.0011780824          861 
   75100   0.57505328   -7.6105854    1.0810805  0.001199601 0.0011772498          862 
   75200   0.57565174     -7.60347     1.083791 0.0012010095 0.0011763691          861 
   75300   0.58462087   -7.5922171    1.0899046 0.0012061804 0.0011755621          861 
   75400   0.61526356   -7.5949792     1.093525  0.001208582  0.001174784          862 
   75500   0.61353898   -7.5941288    1.0887563 0.0012017177 0.0011740317          861 
   75600   0.57680636   -7.5801826    1.0896446 0.0012011073 0.0011732051          861 
   75700   0.55153829   -7.5707265     1.070205 0.0011781209 0.0011722857          861 
   75800   0.55258921   -7.5918034    1.0663091 0.0011722835 0.0011712064          859 
   75900   0.56641472   -7.5535368    1.0688472 0.0011735257 0.0011701427          860 
   76000   0.54769668    -7.613324    1.0688136 0.0011719447 0.0011691047          862 
   76100   0.57944753   -7.6102188     1.070965 0.0011727607  0.001168069          863 
   76200   0.59175621   -7.6210709    1.0761108 0.0011768491 0.0011670487          860 
   76300   0.58250874   -7.5448729    1.0803171 0.0011799007 0.0011660754          862 
   76400   0.56505266   -7.6184852    1.0756923 0.0011733118 0.0011651134          862 
   76500   0.54283205   -7.5691554    1.0627987 0.0011577328 0.0011640328          860 
   76600   0.56077449   -7.5735211    1.0693094 0.0011633044 0.0011629428          860 
   76700   0.57837357    -7.577021    1.0698247 0.0011623476 0.0011618787          862 
   76800    0.5555595   -7.6150807    1.0690879 0.0011600346 0.0011608229          860 
   76900   0.59374772   -7.6113719    1.0718391 0.0011615075 0.0011597388          861 
   77000   0.56615677   -7.5737992    1.0753412 0.0011637892 0.0011587038          861 
   77100   0.59257868   -7.5924744    1.0789199 0.0011661478 0.0011576689          860 
   77200   0.56695208   -7.5949992    1.0702435 0.0011552715 0.0011566583          859 
   77300   0.54487037   -7.6052103    1.0725183 0.0011562293 0.0011555635          861 
   77400   0.52797353   -7.5915052     1.077559 0.0011601626 0.0011545332          862 
   77500     0.543573   -7.5590935    1.0678022 0.0011481744 0.0011534271          858 
   77600   0.57344315   -7.5583099    1.0747544 0.0011541606 0.0011523428          857 
   77700   0.56952909   -7.6067235    1.0732021 0.0011510103 0.0011512635          861 
   77800   0.57227479   -7.6127793    1.0718167  0.001148047 0.0011501826          857 
   77900   0.57216551   -7.5432527    1.0645341 0.0011387827  0.001149031          861 
[...]
   83000   0.54845211   -7.5886223    1.1119978 0.0011164636 0.0010934129          861 
   83100   0.56768349   -7.6183996    1.1060269 0.0011091325 0.0010924512          860 
   83200   0.57036701   -7.5750284    1.1105493  0.001112329 0.0010914988          863 
   83300   0.58049741   -7.6150468    1.1176616 0.0011181088 0.0010905814          862 
   83400   0.57964857   -7.6228548    1.1197373 0.0011188422 0.0010896972          860 
   83500   0.56721628    -7.621485    1.1167845 0.0011145554 0.0010888263          857 
   83600   0.58183929     -7.58473    1.1157882  0.001112229 0.0010879427          862 
   83700   0.58307733   -7.5859832    1.1145337 0.0011096513 0.0010870538          861 
   83800   0.56037258   -7.6000951    1.1168863 0.0011106665 0.0010861182          861 
   83900   0.57856152   -7.6164512    1.1057242 0.0010982561 0.0010851679          860 
   84000   0.58559587   -7.5852743    1.1149596 0.0011061107 0.0010842087          858 
   84100   0.57220296   -7.5730626    1.1327604  0.001122434 0.0010833819          860 
   84200   0.57013658   -7.6231751    1.1183153 0.0011068046 0.0010825289          858 
   84300   0.55043859   -7.5921351    1.1132216 0.0011004563 0.0010816137          858 
   84400   0.58546481   -7.5730238    1.1029413 0.0010890021 0.0010806198          860 
   84500   0.55658981   -7.5846636    1.1098561 0.0010945326 0.0010795892          858 
   84600   0.55164715   -7.6016444    1.1125253 0.0010958681  0.001078622          861 
   84700   0.58205455   -7.6079903    1.1095273 0.0010916246 0.0010776512          861 
   84800    0.5733466   -7.5961136    1.1153804 0.0010960892 0.0010766703          861 
   84900   0.56142418   -7.5590032    1.1093036 0.0010888336 0.0010757073          861 
   85000   0.56017739   -7.5833115    1.1287356 0.0011066035 0.0010748069          859 
   85100   0.57565424   -7.6218554    1.1281739 0.0011047531 0.0010739371          863 
   85200   0.56610333   -7.6093369    1.1206357 0.0010960834 0.0010730364          863 
   85300   0.54827158   -7.6045376    1.1263577 0.0011003885 0.0010721421          863 
   85400   0.59160033   -7.5806538    1.1238578 0.0010966606 0.0010712549          860 
   85500   0.57907201   -7.6272462    1.1235218 0.0010950505 0.0010703375          861 
   85600   0.56176864   -7.6321747    1.1193294 0.0010896898 0.0010694193          864 
   85700   0.58374472   -7.5962558    1.1199991 0.0010890695 0.0010684788          860 
   85800    0.5671634   -7.6088743    1.1358527  0.001103198 0.0010676132          862 
   85900   0.58124256   -7.5885816    1.1275254 0.0010938353 0.0010667514          861 
   86000   0.57609127   -7.6531444     1.133274 0.0010981337 0.0010658799          862 
   86100   0.56464125   -7.6093456    1.1406396 0.0011039872 0.0010650753          864 
   86200   0.57653474    -7.603353    1.1470166 0.0011088714  0.001064293          862 
   86300   0.57300414   -7.5542357    1.1500468 0.0011105126 0.0010635321          858 
   86400   0.55470634     -7.61706    1.1557521   0.00111473 0.0010628196          861 
   86500   0.57721262   -7.5695151     1.163241 0.0011206561 0.0010621477          860 
   86600   0.59050286   -7.6234865      1.16072 0.0011169361 0.0010614903          860 
   86700   0.54461912   -7.5820446    1.1519249 0.0011071943 0.0010607869          860 
   86800   0.57687869   -7.5943202    1.1570259 0.0011108159 0.0010600738          855 
   86900   0.60285303   -7.6052483    1.1576833 0.0011101681 0.0010593551          861 
   87000    0.5821778   -7.6049685    1.1685915 0.0011193405 0.0010587005          857 
   87100   0.57955111    -7.623948    1.1666338 0.0011161824 0.0010580762          861 
   87200   0.56922482   -7.5535234    1.1684316 0.0011166204 0.0010574258          861 
   87300   0.58028423   -7.6670021    1.1731932 0.0011198866 0.0010568052          864 
   87400   0.56976741   -7.6234696    1.1668784 0.0011125842 0.0010561751          860 
   87500   0.57545056   -7.5858864     1.156924 0.0011018324 0.0010554776          862 
   87600   0.56145678   -7.5704929     1.153379 0.0010972022 0.0010547039          862 
   87700    0.5623091   -7.5922388    1.1476513 0.0010905086 0.0010539067          856 
   87800   0.57383981   -7.6187095    1.1400913 0.0010820912 0.0010530459          859 
   87900   0.58775988   -7.6439303    1.1465969 0.0010870278 0.0010521834          864 
   88000   0.58996367   -7.5719524    1.1523048 0.0010911977 0.0010514091          861 
   88100   0.55539496   -7.5820145     1.150908 0.0010886379 0.0010506373          863 
   88200   0.55471555   -7.6239379     1.140047 0.0010771419 0.0010497996          861 
   88300   0.55786051   -7.5702958    1.1410853  0.001076902 0.0010488796          860 
   88400   0.57473487   -7.5884235    1.1346253  0.001069594 0.0010479964          864 
   88500   0.54318751   -7.5737628    1.1414038 0.0010747681 0.0010470936          861 
   88600   0.54133586   -7.5998465      1.14092 0.0010731001 0.0010462071          864 
   88700   0.57653887   -7.5795782    1.1488968 0.0010793844 0.0010453594          863 
   88800   0.56222668   -7.5978861    1.1409351 0.0010706974 0.0010445042          861 
   88900   0.57893333   -7.5898462    1.1425737 0.0010710289 0.0010436076          863 
   89000   0.59198094   -7.6207329    1.1484157 0.0010752956 0.0010427574          863 
   89100   0.54631092   -7.6037907    1.1505201 0.0010760569 0.0010419263          862 
   89200   0.57743206   -7.6031535    1.1647965 0.0010881881 0.0010411582          862 
   89300   0.57758073    -7.564722    1.1570676  0.001079757 0.0010404095          860 
   89400   0.55505296   -7.6266365    1.1649219 0.0010858705 0.0010396522          862 
   89500   0.54343716   -7.5971694    1.1660597 0.0010857166 0.0010388962          862 
   89600   0.55406715   -7.5925825    1.1648642 0.0010833931 0.0010381654          864 
   89700   0.55833192   -7.5987863    1.1600741 0.0010777352   0.00103739          864 
   89800   0.57306787   -7.5816241    1.1510941 0.0010682017 0.0010365587          863 
   89900   0.57378541   -7.6376418    1.1499324 0.0010659366 0.0010357026          864 
   90000   0.56596136   -7.5804169    1.1434402 0.0010587409 0.0010348216          859 
   90100   0.57664815   -7.6078605    1.1376804 0.0010522386 0.0010339007          861 
   90200    0.5811436   -7.6061278     1.133457 0.0010471701 0.0010329362          863 
   90300   0.53633799   -7.6489689    1.1340179 0.0010465282 0.0010319518          862 
   90400   0.54633774    -7.610857    1.1420151 0.0010527425 0.0010309901          864 
   90500   0.58028024   -7.5771686    1.1420821 0.0010516409 0.0010300763          862 
   90600   0.54828134   -7.6023855    1.1447592 0.0010529426 0.0010291729          862 
   90700   0.55771126   -7.6096759    1.1415475 0.0010488309 0.0010282704          863 
   90800   0.59367413   -7.5683538    1.1420041 0.0010480948 0.0010273615          863 
   90900   0.57394069   -7.6018605    1.1300013 0.0010359381 0.0010263806          860 
   91000    0.5466823    -7.569484    1.1422012 0.0010459718 0.0010253918          861 
   91100   0.56915116   -7.5515993    1.1605788 0.0010616345 0.0010245221          858 
   91200   0.55354443   -7.5857542    1.1659542 0.0010653821 0.0010237284          861 
   91300   0.56697366   -7.5743576     1.162941 0.0010614649 0.0010229118          860 
   91400   0.56028476   -7.6089444    1.1575352 0.0010553749 0.0010221046          862 
   91500   0.54863626   -7.6130933    1.1513996 0.0010486335 0.0010212193          861 
   91600   0.59311199    -7.590945    1.1425529 0.0010394404 0.0010202962          862 
   91700   0.56524289   -7.5747605    1.1423954 0.0010381637 0.0010193655          862 
   91800   0.54833317   -7.5903833    1.1441753 0.0010386486 0.0010184382          862 
   91900   0.55968189   -7.5928063    1.1280963 0.0010229382 0.0010174419          860 
   92000   0.58304034   -7.5524052    1.1453528 0.0010374572 0.0010164598          860 
   92100   0.59242611    -7.605307    1.1256824 0.0010185327 0.0010154669          859 
   92200   0.56741579   -7.6222094    1.1259699 0.0010176879 0.0010144127          859 
   92300    0.5784028   -7.6052431    1.1404308 0.0010296413 0.0010134006          861 
   92400   0.56347312   -7.5691742    1.1342881 0.0010229871 0.0010124354          860 
   92500   0.57024097   -7.6243621    1.1403355 0.0010273293 0.0010114418          860 
   92600   0.58377857   -7.5789229    1.1344041  0.001020882 0.0010104509          860 
   92700   0.55824841    -7.590347     1.137847 0.0010228758 0.0010094655          859 
   92800   0.54779487   -7.6197236    1.1298346 0.0010145785 0.0010084464          862 
   92900   0.56789893   -7.5442423    1.1187786 0.0010035689  0.001007356          863 
   93000   0.55993267    -7.625542    1.1179569 0.0010017535 0.0010062636          862 
   93100   0.56708983   -7.6159783    1.1154723 0.00099845352 0.0010051436          861 
   93200   0.58215541   -7.5990624    1.1221857 0.0010033849 0.0010040164          860 
   93300   0.57461328   -7.5871184    1.1136044 0.0009946449 0.0010029134          860 
   93400   0.57916415   -7.6041569    1.1146451 0.0009945085 0.0010017809          862 
   93500   0.58931378   -7.6178416    1.1162185 0.00099484712 0.0010006475          863 
   93600   0.54469412    -7.623496    1.1252481 0.0010018235 0.00099956129          864 
   93700   0.54477427   -7.5989447    1.1288498 0.0010039575 0.00099851334          863 
   93800   0.57700211   -7.6139257    1.1372784 0.0010103753 0.00099749002          861 
   93900   0.58094953   -7.5978554    1.1397556 0.0010114976 0.00099649146          861 
   94000   0.55482729   -7.6149115    1.1412485 0.0010117451 0.00099551464          860 
   94100   0.57147325   -7.5724608    1.1487369 0.0010173015 0.00099458205          861 
   94200   0.57523044   -7.5801562    1.1348249 0.0010039145 0.00099362422          863 
   94300   0.56506956    -7.639421     1.130328 0.00099887594 0.00099259606          861 
   94400   0.56724671    -7.578546    1.1169143 0.00098597664 0.00099151949          861 
   94500   0.56811219   -7.5925592    1.1200777 0.00098772283 0.00099041429          862 
   94600   0.55423527   -7.6574526     1.124734 0.00099078045 0.00098930378          862 
   94700   0.54889715   -7.5856651    1.1362981 0.00099991031 0.00098825495          864 
   94800   0.55888987   -7.6072292    1.1421695 0.0010040168 0.0009872783          862 
   94900   0.56007013   -7.5767393    1.1300458 0.00099231278 0.00098626311          860 
   95000   0.58921474   -7.5847924    1.1225595 0.00098470128 0.00098520657          863 
   95100   0.57459168   -7.6508905     1.113367 0.00097561077 0.00098408607          861 
   95200   0.56912647    -7.617565    1.1078413 0.00096974902 0.0009829428          859 
   95300   0.58112218   -7.6046662    1.0971752 0.00095940468 0.0009817284          860 
   95400   0.56511495   -7.6086849    1.1041873 0.00096452421 0.00098051971          864 
   95500   0.55804822   -7.6063629    1.0906873 0.0009517341 0.00097926081          861 
   95600   0.56355319   -7.5686802    1.1035149 0.00096192025 0.00097803882          860 
   95700   0.57321476   -7.5973974    1.1014252 0.00095909545 0.00097685238          858 
   95800   0.56416003    -7.609882    1.0973006 0.00095450641 0.00097563464          858 
   95900   0.56142584   -7.5722557    1.0977415 0.00095389424 0.00097438947          862 
   96000   0.58202412   -7.5994139    1.0994677  0.000954399 0.00097317278          863 
   96100   0.53868947   -7.6024905    1.0942258 0.00094886038 0.00097193128          861 
   96200   0.57748861   -7.6266303    1.0945297 0.00094813729 0.0009706864          861 
   96300   0.58786771   -7.5866807    1.0977109 0.00094990559 0.00096944934          863 
   96400   0.56247377   -7.6127817    1.1072009 0.00095712386 0.00096825097          860 
   96500   0.55725902   -7.6223732    1.1069125  0.000955883 0.0009670927          861 
   96600   0.57899404   -7.5709637     1.102516 0.00095110076 0.00096589967          859 
   96700   0.56078538   -7.6163247    1.1076639 0.00095455352 0.0009647238          861 
   96800   0.56486707   -7.5953378    1.0960864 0.00094360054 0.00096352578          862 
   96900   0.57839876    -7.597798    1.1060921 0.0009512316 0.00096232594          864 
   97000   0.56311841   -7.6019216    1.1040933 0.00094853376 0.00096116706          862 
   97100   0.53417499   -7.6146113    1.1015689 0.00094539041 0.00095995983          862 
   97200   0.56612041   -7.6312305     1.106556 0.00094869345 0.00095878797          863 
   97300   0.58236676   -7.5999212    1.1152489 0.0009551635 0.00095765368          862 
   97400   0.56951669   -7.6063076    1.1221438 0.00096008199 0.00095655295          860 
   97500   0.54611258   -7.6080976    1.1128844 0.00095118326 0.00095546296          863 
   97600   0.55218132   -7.5981302    1.1221104 0.00095808606 0.00095435633          861 
   97700   0.57513234   -7.5721654    1.1258074 0.00096025875 0.00095330114          860 
   97800    0.5652822   -7.6170452    1.1228183   0.00095673 0.00095223367          862 
   97900   0.55944319   -7.6274248    1.1256056 0.00095812528 0.00095117729          862 
   98000    0.5909398   -7.6210641    1.1139126 0.00094720457 0.00095007966          864 
   98100   0.56117702   -7.6110705    1.1091118 0.0009421609 0.00094894929          864 
   98200    0.5610899   -7.6287509    1.1126332 0.00094418973 0.00094782942          863 
   98300   0.56079974   -7.5665331    1.1154614 0.00094562681 0.00094671587          858 
   98400    0.5633112   -7.5973384    1.1171674 0.00094611063 0.00094560262          861 
   98500   0.57062248   -7.6299401    1.1135598 0.00094209799 0.0009445021          860 
   98600   0.58212449   -7.6310725    1.1076111 0.00093611486 0.00094338416          861 
   98700   0.58324815   -7.6045003    1.1128193 0.00093956371 0.00094226733          862 
   98800   0.55993769   -7.5940255    1.1024694 0.0009298831 0.00094110105          861 
   98900    0.5915137   -7.6228283    1.1080843 0.00093367403 0.00093995444          859 
   99000   0.58955128   -7.5935049    1.1047284 0.00092990604 0.00093879453          860 
   99100   0.57338586       -7.608    1.1041077 0.00092844575 0.00093764859          861 
   99200    0.5795106   -7.6165256    1.0954314 0.00092022125 0.00093645121          864 
   99300   0.57269435   -7.5850683    1.1075526 0.00092946677 0.00093527288          862 
   99400   0.57395184   -7.6089373    1.1044949 0.00092596822 0.00093411336          862 
   99500   0.56972515   -7.5867199    1.1099719 0.00092962472 0.00093296353          860 
   99600   0.56497989    -7.590491    1.1119727 0.00093036536 0.00093186459          862 
   99700   0.55211498   -7.6346227    1.1005212 0.00091986058 0.0009307279          860 
   99800    0.5916665   -7.6459436    1.0979139 0.00091676177 0.00092953467          862 
   99900   0.59199414   -7.5886689    1.0988389 0.00091661567 0.00092834833          859 
  100000   0.55074384   -7.5838358    1.1173713 0.00093114274 0.00092722864          863 
  100100   0.53877444   -7.6204187    1.1266695 0.00093795332 0.00092617876          862 
  100200   0.55770728   -7.5909618    1.1351494 0.00094406967 0.00092518174          863 
  100300   0.56948116   -7.6073323    1.1268452  0.000936229 0.00092414664          859 
  100400   0.58937984   -7.6299119    1.1188443 0.00092865562 0.00092309279          862 
  100500   0.55808627   -7.6067871    1.1186523 0.00092757239 0.00092202396          863 
  100600   0.56612161   -7.5989387    1.1147959 0.00092345587 0.00092093898          863 
  100700   0.56008762    -7.520712    1.1249879 0.00093097311 0.00091987879          863 
  100800   0.58157626   -7.6076874    1.1272846 0.00093194825 0.00091885442          863 
  100900   0.56792576   -7.6190564    1.1260374 0.00092999453 0.00091782839          863 
  101000   0.55744371   -7.5651466     1.119241 0.00092346618 0.00091678737          862 
  101100   0.57787904   -7.6021048    1.1272493 0.00092915374 0.00091573124          863 
  101200   0.55976528   -7.5788195    1.1250234 0.00092640267 0.00091471547          862 
  101300   0.57601754   -7.5965045    1.1212416 0.00092237713 0.00091367967          862 
  101400   0.53672655   -7.6040811    1.1296363 0.00092836649 0.00091264331          862 
  101500   0.56378215   -7.5897372    1.1272424 0.00092548636 0.00091163127          863 
  101600   0.56076853   -7.5944403     1.126782 0.00092419786 0.0009106138          864 
  101700   0.56818457   -7.6149398     1.116765 0.00091508108 0.00090954869          863 
  101800   0.58836392   -7.6277349    1.1155284 0.00091316997 0.00090848433          862 
  101900   0.60654619   -7.6059876    1.1215572 0.00091720411 0.00090742672          861 
  102000   0.57287313   -7.5993768    1.1330987 0.00092573421 0.00090642537          862 
  102100   0.59185147   -7.6483203    1.1410755 0.00093133818 0.00090544664          862 
  102200   0.59611227   -7.6081822    1.1356461 0.00092599979 0.00090450175          862 
  102300   0.57672046   -7.6189762    1.1466351 0.0009340462 0.00090356774          862 
  102400   0.56417522   -7.5957349    1.1497489 0.00093566806 0.00090266874          859 
  102500   0.56461669   -7.5916121    1.1406135 0.00092732802 0.00090173714          860 
  102600   0.56160059   -7.5899158    1.1364333 0.00092302902 0.00090076428          864 
  102700   0.56221781   -7.6238921    1.1318569 0.00091841682 0.00089979366          860 
  102800   0.60249958    -7.572773    1.1323775 0.00091794546 0.00089879204          861 
  102900   0.57031303   -7.5812836    1.1557428 0.00093597571 0.00089788281          859 
  103000   0.57876635   -7.6173237    1.1355108 0.00091869805 0.00089696926          863 
  103100   0.57635784   -7.5984682    1.1254843 0.0009097028 0.0008959864          864 
  103200   0.53580744   -7.5695234    1.1379134 0.0009188577 0.00089497911          864 
  103300   0.59467833   -7.5956675    1.1356798 0.00091616631 0.00089402649          862 
  103400   0.57503753   -7.6388638    1.1329997 0.00091312033 0.00089303056          864 
  103500   0.55843641   -7.6013684    1.1338252 0.0009129027 0.00089206067          860 
  103600   0.54952489   -7.5893548    1.1387225 0.00091596084 0.0008910894          858 
  103700   0.56215633   -7.6381577    1.1389285 0.00091524306 0.00089013823          862 
  103800   0.55555484   -7.6302976    1.1256556 0.00090370551 0.00088914013          864 
  103900   0.55907695   -7.6240921    1.1257018 0.0009028728 0.00088813667          861 
  104000    0.5716529   -7.5965544    1.1221384 0.00089914936 0.00088710612          861 
Loop time of 197.69 on 12 procs for 100000 steps with 864 atoms

Performance: 87409.627 tau/day, 505.843 timesteps/s
99.4% CPU use with 12 MPI tasks x no OpenMP threads

MPI task timing breakdown:
Section |  min time  |  avg time  |  max time  |%varavg| %total
---------------------------------------------------------------
Pair    | 11.176     | 12.163     | 12.959     |  17.4 |  6.15
Neigh   | 0.92654    | 0.96332    | 0.99336    |   1.9 |  0.49
Comm    | 7.9552     | 8.8329     | 9.8663     |  21.4 |  4.47
Output  | 2.4481     | 2.449      | 2.457      |   0.2 |  1.24
Modify  | 170.51     | 170.94     | 171.31     |   1.7 | 86.47
Other   |            | 2.337      |            |       |  1.18

Nlocal:        72.0000 ave          75 max          68 min
Histogram: 1 2 0 0 1 2 0 3 1 2
Nghost:        1662.92 ave        1675 max        1649 min
Histogram: 2 1 0 1 3 0 0 1 2 2
Neighs:        8989.58 ave        9987 max        8175 min
Histogram: 4 0 1 0 2 1 1 0 2 1
FullNghs:      17978.8 ave       18797 max       16941 min
Histogram: 1 2 0 0 1 2 2 1 1 2

Total # of neighbors = 215745
Ave neighs/atom = 249.70486
Neighbor list builds = 4172
Dangerous builds = 0

#clear
#
#next RN
#
#jump SELF



Total wall time: 0:03:18
