
units lj                  # Use reduced LJ style units
atom_style atomic         # Uncharged point particles
atom_modify map hash      # Needed for indexing of clusters etc
                          # Used to be able to find where atoms are in relation to each other.

# Define a lattice with which to populate the simulation cell. With units
# set to 'lj' the second argument to the lattice command is the reduced
# density rho* and the spacings are multiples of that required to acheive
# that density. Also define a simulation cell called 'box' in lattice units
# and fill it with atoms. Here we're creating a box which is ten lattice
# constants in each direction.
lattice fcc 1.0 spacing 1 1 1                 # All equal sizes - gives the right reduced density.
Lattice spacing in x,y,z = 1.5874011 1.5874011 1.5874011

region box block 0 6 0 6 0 6 units lattice # Defines a region, "box", in lattice units
create_box 1 box                              # Creates a simulation box as specified above,
Created orthogonal box = (0.0000000 0.0000000 0.0000000) to (9.5244063 9.5244063 9.5244063)
  2 by 2 by 3 MPI processor grid
                                              # with one type of atom
create_atoms 1 box                            # Creates particles on lattice points
Created 864 atoms
  using lattice units in orthogonal box = (0.0000000 0.0000000 0.0000000) to (9.5244063 9.5244063 9.5244063)
  create_atoms CPU = 0.001 seconds


# Set the mass of the first (and only) atom type.
mass 1 1.0

# Lennard-Jones interactions between particles, 3.5 sigma cut-off. Apply
# long range tail corrections to energy and pressure and set all coefficients
# to unity since we work in reduced units here. Note that this doesn't shift
# the potential such that it goes to zero at the cutoff. That would require
# pair_modify('shift', 'yes').
pair_style lj/cut  3.5      # non-GPU version
pair_modify tail  yes
pair_coeff 1  1  1.0  1.0   # Intearaction between 1 and 1 set with epsilon = 1 and sigma = 1

write_data data.*
System init for write_data ...
Neighbor list info ...
  update every 1 steps, delay 10 steps, check yes
  max neighbors/atom: 2000, page size: 100000
  master list distance cutoff = 3.8
  ghost atom cutoff = 3.8
  binsize = 1.9, bins = 6 6 6
  1 neighbor lists, perpetual/occasional/extra = 1 0 0
  (1) pair lj/cut, perpetual
      attributes: half, newton on
      pair build: half/bin/atomonly/newton
      stencil: half/bin/3d
      bin: standard

#############################
#   M E L T   S Y S T E M   #
#############################

velocity all create 2.4 2750902 mom yes dist gaussian # Assign velocities
                                                    # Temperature 2.4, random number seed, zero linear momentum
						                                                        # Gaussian distribution

timestep 0.002   # simulation timestep
thermo 100       # output thermodynamic data every 100 steps

# Define a fix  in this case with index 1 applied to all
# particles in the simulation. This fix is for simulations
# in the anisotropic NPT ensemble. Note that we use the MTK
# correction.
fix 1 all npt temp 2.4 2.4 0.1 iso 5.68 5.68 0.5 mtk yes tchain 5 pchain 5 # Use NPT ensemble
                                                                         # Set temperature and pressure and damping
                                                                         # Numbers of thermostats in chain and in barostat
run 1000         # run for 10000 steps
Per MPI rank memory allocation (min/avg/max) = 3.633 | 3.633 | 3.634 Mbytes
Step Temp E_pair E_mol TotEng Press Volume 
       0          2.4   -8.3859253            0    -4.790092     -2.24275          864 
     100    1.3007594   -6.4407842            0   -4.4919034    5.3582762    891.69205 
     200    1.5828213   -6.0796178            0   -3.7081338    6.4338598    907.46239 
     300    1.7629056     -5.73851            0   -3.0972122    5.5953229    954.02439 
     400    1.8733232   -5.2785237            0   -2.4717912    6.0585808    994.36537 
     500      2.02574   -4.9360708            0   -1.9009777    5.7478153    1042.8978 
     600    2.2112838   -4.6895875            0   -1.3765009    5.7138268    1079.0368 
     700    2.3146746   -4.4629638            0  -0.99497044    5.6088298    1118.0222 
     800    2.4734008     -4.39503            0   -0.6892229    5.7937797    1123.7282 
     900    2.4206618   -4.2767239            0  -0.64993368    5.5531987    1146.9555 
    1000    2.3618098   -4.2459295            0  -0.70731524    5.7000582    1143.3852 
Loop time of 0.18566 on 12 procs for 1000 steps with 864 atoms

Performance: 930735.176 tau/day, 5386.199 timesteps/s
99.8% CPU use with 12 MPI tasks x no OpenMP threads

MPI task timing breakdown:
Section |  min time  |  avg time  |  max time  |%varavg| %total
---------------------------------------------------------------
Pair    | 0.068665   | 0.078167   | 0.10126    |   3.4 | 42.10
Neigh   | 0.012028   | 0.013088   | 0.01605    |   1.2 |  7.05
Comm    | 0.050846   | 0.076712   | 0.086912   |   3.9 | 41.32
Output  | 0.00019625 | 0.00020309 | 0.00026442 |   0.0 |  0.11
Modify  | 0.015036   | 0.015887   | 0.016393   |   0.3 |  8.56
Other   |            | 0.001602   |            |       |  0.86

Nlocal:        72.0000 ave          80 max          66 min
Histogram: 2 1 2 2 1 0 2 0 0 2
Nghost:        1314.75 ave        1327 max        1295 min
Histogram: 1 0 0 2 3 0 0 1 2 3
Neighs:        6211.67 ave        7136 max        5326 min
Histogram: 2 0 0 2 1 4 1 0 0 2

Total # of neighbors = 74540
Ave neighs/atom = 86.273148
Neighbor list builds = 80
Dangerous builds = 2

# Equilibrate just above the melting temperature to avoid step fn in T

fix 1 all npt temp 1.25 1.25 0.1 iso 5.68 5.68 0.5 mtk yes tchain 5 pchain 5
run 1000
Per MPI rank memory allocation (min/avg/max) = 3.634 | 3.634 | 3.634 Mbytes
Step Temp E_pair E_mol TotEng Press Volume 
    1000    2.3618098   -4.2459295            0  -0.70731524    5.7000582    1143.3852 
    1100    1.8617945   -4.5967525            0    -1.807293    5.9593679    1083.5566 
    1200      1.66126   -5.0091582            0   -2.5201524    5.9308167    1028.0056 
    1300    1.4533368   -5.3154554            0   -3.1379734    5.5185254    997.93023 
    1400    1.3100587   -5.5224566            0    -3.559643    5.2858775     978.0358 
    1500    1.3306301   -5.7450087            0   -3.7513736    5.2687861    956.68836 
    1600    1.2302857    -5.777427            0   -3.9341343     5.385203    950.58576 
    1700    1.2545134   -5.8251615            0   -3.9455694    5.6370291    940.07281 
    1800    1.2669685   -5.8434457            0   -3.9451925    6.1076728    931.13358 
    1900    1.2975362   -5.8185374            0   -3.8744858    5.5765884    942.23221 
    2000    1.2225624   -5.8503078            0   -4.0185867    5.1330896    948.19804 
Loop time of 0.170854 on 12 procs for 1000 steps with 864 atoms

Performance: 1011392.452 tau/day, 5852.966 timesteps/s
99.9% CPU use with 12 MPI tasks x no OpenMP threads

MPI task timing breakdown:
Section |  min time  |  avg time  |  max time  |%varavg| %total
---------------------------------------------------------------
Pair    | 0.070608   | 0.078149   | 0.090145   |   1.8 | 45.74
Neigh   | 0.0099351  | 0.010742   | 0.012273   |   0.5 |  6.29
Comm    | 0.051469   | 0.065071   | 0.07338    |   2.1 | 38.09
Output  | 0.00018948 | 0.00019733 | 0.00025467 |   0.0 |  0.12
Modify  | 0.014437   | 0.01483    | 0.01524    |   0.2 |  8.68
Other   |            | 0.001864   |            |       |  1.09

Nlocal:        72.0000 ave          79 max          65 min
Histogram: 1 1 0 4 0 1 1 3 0 1
Nghost:        1466.08 ave        1476 max        1447 min
Histogram: 1 1 0 0 2 0 0 4 1 3
Neighs:        7466.67 ave        8131 max        6694 min
Histogram: 1 0 2 0 3 1 3 0 0 2

Total # of neighbors = 89600
Ave neighs/atom = 103.70370
Neighbor list builds = 67
Dangerous builds = 0


# Small amount of linear quench

fix 1 all npt temp 1.25 ${temp} 0.1 iso 5.68 5.68 0.5 mtk yes tchain 5 pchain 5
fix 1 all npt temp 1.25 0.97 0.1 iso 5.68 5.68 0.5 mtk yes tchain 5 pchain 5
run 2000
Per MPI rank memory allocation (min/avg/max) = 3.634 | 3.634 | 3.634 Mbytes
Step Temp E_pair E_mol TotEng Press Volume 
    2000    1.2225624   -5.8503078            0   -4.0185867    5.1330896    948.19804 
    2100    1.2593063    -5.859345            0   -3.9725719    5.4251313    941.56215 
    2200    1.2343505   -5.9015712            0   -4.0521884    5.8456427    929.25003 
    2300    1.2103005   -5.8964973            0   -4.0831477    6.3094531    921.60006 
    2400    1.1975997   -5.9368945            0    -4.142574    5.9540508    923.84974 
    2500    1.1553319   -5.9412844            0   -4.2102925    5.5917839    927.76888 
    2600    1.1272736   -5.9752153            0    -4.286262    5.6970754    922.89567 
    2700    1.1521274   -5.9880323            0   -4.2618414    5.7627061    921.18323 
    2800    1.1483235   -6.0405221            0   -4.3200305    5.7473733    917.48273 
    2900    1.1390926   -6.0631777            0   -4.3565164    5.6984044    916.36365 
    3000    1.1510281   -5.9772255            0   -4.2526816    5.8431871    921.13941 
    3100    1.1404844   -6.0840491            0   -4.3753025    5.6626416    915.90783 
    3200     1.099851   -6.1110794            0   -4.4632123    5.2910558    918.26244 
    3300    1.0312147   -6.1683927            0    -4.623361    4.9239999    918.14614 
    3400    1.0521868   -6.2116069            0   -4.6351534    4.9827243    913.11785 
    3500    1.0134937    -6.245077            0    -4.726596    5.1324988    907.68163 
    3600    1.0227942   -6.2927418            0   -4.7603262    5.6890251    895.37156 
    3700    1.0707226   -6.2433851            0   -4.6391601    6.1045424    893.77788 
    3800    1.0300857   -6.2113896            0   -4.6680494     5.984212     896.6382 
    3900   0.99802595   -6.2616748            0   -4.7663685    5.0563566    909.41944 
    4000   0.93584747    -6.247266            0   -4.8451196    5.6132719    898.89568 
Loop time of 0.34423 on 12 procs for 2000 steps with 864 atoms

Performance: 1003979.012 tau/day, 5810.064 timesteps/s
99.8% CPU use with 12 MPI tasks x no OpenMP threads

MPI task timing breakdown:
Section |  min time  |  avg time  |  max time  |%varavg| %total
---------------------------------------------------------------
Pair    | 0.15624    | 0.16691    | 0.18442    |   1.8 | 48.49
Neigh   | 0.018323   | 0.019276   | 0.021484   |   0.6 |  5.60
Comm    | 0.10469    | 0.1245     | 0.13567    |   2.3 | 36.17
Output  | 0.00037049 | 0.00038429 | 0.00049801 |   0.0 |  0.11
Modify  | 0.028073   | 0.028998   | 0.029718   |   0.3 |  8.42
Other   |            | 0.004165   |            |       |  1.21

Nlocal:        72.0000 ave          76 max          67 min
Histogram: 1 1 0 2 0 1 4 1 1 1
Nghost:        1531.33 ave        1549 max        1518 min
Histogram: 3 1 0 2 1 1 2 0 0 2
Neighs:        7938.08 ave        8705 max        6962 min
Histogram: 1 1 0 2 2 0 0 2 2 2

Total # of neighbors = 95257
Ave neighs/atom = 110.25116
Neighbor list builds = 117
Dangerous builds = 0

#############################
# F R E E Z E  S Y S T E M  #
#############################

# Define solid atoms. This closely follows ten Wolde  Ruiz-Montero and Frenkel  Faraday Discuss  1996  104  93-110
# Compute components of the per-atom q6 vector
compute q6 all orientorder/atom degrees 1 6 components 6 nnn NULL cutoff 1.3 # compute the Q6 parameter.
                                                                             # Use all neighbours within 1.3 unit cell.

# get number of connections
compute coord_number all coord/atom orientorder q6 0.5

# An atom is solid if it has 8 or more connections (of a possible 14)
variable is_solid atom c_coord_number>=8
group solid dynamic all var is_solid    # Must be dynamic to update
dynamic group solid defined

# do clustering
compute cluster solid cluster/atom 1.3 # Create a cluster where all atoms within are solid and max 1.3 units from another member

# define chunks one chunk per cluster
compute clus_chunks solid chunk/atom c_cluster nchunk every compress yes  # Says which atoms are in which chunk

# count the size of each chunk
compute size_chunks solid property/chunk clus_chunks count


# Find the maximum entry in the vector of chunk sizes
variable max_n equal max(c_size_chunks)


# Thermo style which includes this variable
# thermo_style custom step temp pe vol v_max_n

thermo ${N}  # Print the thermo information every 100 steps
thermo 100  

# Reset the npt fix at a lower temperature (below freezing)

compute myRDF all rdf 100
fix 2 all ave/time 1 50 100 c_myRDF[*] file pcf.rdf mode vector


compute msd all msd com yes
variable twopoint equal c_msd[4]/6/(step*dt+1.0e-6)
fix 9 all vector 10 c_msd[4]
variable fit equal slope(f_9)/6/(10*dt)
thermo_style custom step temp pe c_msd[4] v_twopoint v_fit v_max_n


fix 1  all npt temp  ${temp} ${temp}  0.1  iso  5.68  5.68  0.5  mtk yes tchain  5  pchain  5
fix 1  all npt temp  0.97 ${temp}  0.1  iso  5.68  5.68  0.5  mtk yes tchain  5  pchain  5
fix 1  all npt temp  0.97 0.97  0.1  iso  5.68  5.68  0.5  mtk yes tchain  5  pchain  5

dump dmp2 all dcd ${N} traj.dcd
dump dmp2 all dcd 100 traj.dcd
dump dmp3 all dcd ${N} traj_unwrap.dcd
dump dmp3 all dcd 100 traj_unwrap.dcd
dump_modify dmp3 unwrap yes


# fix rnuntil all halt ${N} v_max_n >= 3980 error soft message no   # Stop when solidified

run 100000 # 5000000  # Run for this many steps
Neighbor list info ...
  update every 1 steps, delay 10 steps, check yes
  max neighbors/atom: 2000, page size: 100000
  master list distance cutoff = 3.8
  ghost atom cutoff = 3.8
  binsize = 1.9, bins = 6 6 6
  5 neighbor lists, perpetual/occasional/extra = 1 4 0
  (1) pair lj/cut, perpetual
      attributes: half, newton on
      pair build: half/bin/atomonly/newton
      stencil: half/bin/3d
      bin: standard
  (2) compute orientorder/atom, occasional
      attributes: full, newton on
      pair build: full/bin/atomonly
      stencil: full/bin/3d
      bin: standard
  (3) compute coord/atom, occasional
      attributes: full, newton on
      pair build: full/bin/atomonly
      stencil: full/bin/3d
      bin: standard
  (4) compute cluster/atom, occasional
      attributes: full, newton on
      pair build: full/bin/atomonly
      stencil: full/bin/3d
      bin: standard
  (5) compute rdf, occasional, copy from (1)
      attributes: half, newton on
      pair build: copy
      stencil: none
      bin: none
Per MPI rank memory allocation (min/avg/max) = 9.696 | 9.700 | 9.701 Mbytes
Step Temp PotEng c_msd[4] v_twopoint v_fit v_max_n 
    4000   0.93584747    -6.247266 9.1303346e-34 1.9021528e-35 8.3333333e+20            1 
    4100   0.93823995   -6.3332723  0.048200362 0.00097968204     0.043799            4 
    4200   0.93611224   -6.2901633  0.083130648 0.0016494174  0.036789875            2 
    4300   0.99218574   -6.2887673   0.11275098 0.0021850963  0.031823598            3 
    4400   0.99978972   -6.2741405   0.13852987 0.0026236715  0.028668039            4 
    4500   0.95514938   -6.2810432   0.15722013 0.0029114836  0.026156046            2 
    4600    1.0138019   -6.2832228   0.17386124 0.0031496598   0.02363751            2 
    4700   0.95299948   -6.2770286    0.1907815 0.0033826504  0.021762404            8 
    4800   0.98807513   -6.3383085   0.21064503 0.0036570314  0.020421352            2 
    4900   0.95045461   -6.2719062   0.24201844 0.0041159595  0.019978927            4 
    5000   0.94253537   -6.2094339    0.2699409 0.0044990146  0.019983104            1 
    5100    0.9792586   -6.3230357   0.29246812 0.0047788904  0.019963998            3 
    5200   0.97316383   -6.3119646   0.32672544 0.0052359841  0.020163052            3 
    5300   0.99267585   -6.3249052    0.3616816 0.0056868171  0.020570122            2 
    5400   0.97110182    -6.391012   0.38340076 0.0059166779  0.020868543            4 
    5500   0.94473684   -6.3863324   0.40902865 0.0061974032  0.021017012            4 
    5600   0.95911868   -6.3308081   0.42614502 0.0063414432  0.021084068            7 
    5700   0.99899509   -6.3542009   0.45514592 0.0066541796  0.021044107            9 
    5800   0.93364595   -6.2813945   0.47404582 0.0068110025  0.021048547            3 
    5900   0.92408682   -6.3445681   0.49694769 0.0070190345  0.020941583            5 
    6000    1.0022417   -6.3608794   0.52175396 0.0072465821  0.020823752            2 
    6100   0.97082783    -6.272631   0.56868943 0.0077689806  0.020907085            3 
    6200   0.97772108   -6.3634968   0.60010234 0.0080658911  0.021100467            2 
    6300   0.95697857   -6.3563165   0.63170229 0.0083558497  0.021320734            4 
    6400   0.96487226   -6.2894948   0.66523733 0.0086619438  0.021517807            3 
    6500   0.99773815   -6.3037768   0.69950877 0.0089680605  0.021772092            3 
    6600   0.93509389   -6.3154707   0.70679533 0.0089241828  0.021921151            4 
    6700   0.99035995   -6.4021297   0.72659628 0.0090372665   0.02192105            5 
    6800   0.90733793   -6.3206406   0.75849586 0.0092952917  0.021943074            4 
    6900   0.96242712   -6.3401824    0.7987952 0.0096472843   0.02202538            5 
    7000   0.95170786   -6.2879983   0.81467981 0.0096985685  0.022064976            4 
    7100    1.0015017   -6.2419643   0.83053198 0.0097480273  0.022059549            2 
    7200   0.96598526    -6.167084   0.83863122 0.0097063792  0.021996338            4 
    7300   0.99031389   -6.2949378   0.85798871  0.009794391   0.02191201            2 
    7400    0.9361901   -6.2924524   0.86846778 0.0097800419  0.021772263            6 
    7500   0.98760656   -6.2758235   0.89943884 0.0099937642  0.021628475            2 
    7600   0.91459666   -6.2511506   0.93521709  0.010254573  0.021535564            3 
    7700   0.94251281   -6.3090738   0.95115841  0.010293922  0.021451472            4 
    7800   0.98436667   -6.3532879   0.98861859  0.010562164  0.021386766            5 
    7900   0.97377889   -6.3118081    1.0265929  0.010829038  0.021386162            3 
    8000   0.91911871   -6.2641844    1.0405625  0.010839192  0.021380267            3 
    8100   0.93717432   -6.3555004    1.0597439  0.010902715  0.021330142            3 
    8200   0.95987296    -6.298516    1.0952441  0.011130529  0.021291312            2 
    8300   0.97960354   -6.2904208    1.1487734  0.011533868  0.021318301            2 
    8400    1.0198264   -6.2574407    1.1696714  0.011603883  0.021379318            4 
    8500   0.97484283   -6.2731177    1.1812936  0.011581309  0.021414237            5 
    8600    1.0342129   -6.3373616    1.1721497  0.011358039  0.021391877            1 
    8700   0.97391078    -6.335662    1.1804943  0.011307416  0.021307725            5 
    8800    0.9616114   -6.3337093    1.2050698  0.011411645  0.021218473            1 
    8900    1.0033833   -6.3191792    1.2257356  0.011476925  0.021134318            3 
    9000   0.94332411   -6.3376673    1.2379167  0.011462191  0.021035981            1 
    9100   0.95364593   -6.3176666    1.2526389  0.011471051  0.020924133            2 
    9200   0.97971438   -6.3286656    1.2658456  0.011465992  0.020806663            1 
    9300    0.9540388   -6.4200827     1.267145  0.011354345  0.020662277            1 
    9400    0.9529825   -6.3412139    1.2871067   0.01141052  0.020516481            3 
    9500    1.0485996   -6.3507126    1.3090982  0.011483317  0.020394099            1 
    9600   0.98270236   -6.3368252    1.3412384  0.011642694  0.020280205            1 
    9700    1.0357055   -6.3470361    1.3741089  0.011805058  0.020196468            2 
    9800   0.99396457   -6.3123466    1.4008887  0.011912318  0.020129034            1 
    9900    0.9571779   -6.3476517    1.4215661  0.011966044  0.020061695            2 
   10000   0.96879168   -6.3258562    1.4460533  0.012050443  0.019992002            2 
   10100   0.96347072   -6.2673583    1.4821952  0.012229333  0.019944908            3 
   10200   0.98468187   -6.2703997    1.4851536  0.012133607  0.019887271            1 
   10300   0.99427993   -6.3728921    1.4967596  0.012109705  0.019812058            6 
   10400   0.96634348   -6.3227773    1.5237468  0.012209509  0.019743474            4 
   10500    1.0061208   -6.3138835     1.562741  0.012402705   0.01969015            4 
   10600   0.95929136   -6.3384109    1.5826447  0.012442175  0.019656007            2 
   10700     1.002599   -6.3376331    1.6102734   0.01254107  0.019614891            4 
   10800   0.98972478   -6.2951695      1.64783  0.012714737  0.019598432            2 
   10900   0.94812125   -6.3322501    1.6478939  0.012598577   0.01957538            3 
   11000    0.9632116   -6.3023018    1.6628033  0.012596994  0.019533046            2 
   11100    1.0248877   -6.3527403    1.6870524  0.012665558  0.019489247            6 
   11200   0.97349683   -6.3292347    1.7259534  0.012841914  0.019465504            2 
   11300   0.98511316   -6.3823333    1.7509534  0.012912635  0.019447854           10 
   11400   0.94522454    -6.363985    1.7462648  0.012765093  0.019419188            8 
   11500    0.9602172   -6.3111146    1.7689035  0.012818141  0.019381083            6 
   11600   0.96398853   -6.3114724    1.7956138  0.012899524  0.019346303            2 
   11700   0.96993626   -6.3803433    1.8244693  0.012994795  0.019314939            8 
   11800     0.972094   -6.2966548    1.8539434   0.01309282  0.019291063            3 
   11900   0.97787871   -6.3316348    1.8656852  0.013065022  0.019267258            4 
   12000    1.0082647   -6.3364595    1.8842501  0.013085069  0.019238792            7 
   12100   0.95780839   -6.2018366    1.8955031  0.013054428  0.019210453            4 
   12200   0.97707865   -6.3176691    1.9056507  0.013016739  0.019178801            6 
   12300   0.98085136   -6.3400057    1.9090666  0.012934055  0.019135322            2 
   12400   0.92962417    -6.334557    1.9307188   0.01297526  0.019085397            3 
   12500   0.96978131   -6.3167087    1.9721538  0.013147691   0.01904476            2 
   12600   0.92948675   -6.3016942    1.9847379  0.013126573  0.019010788            5 
   12700   0.99375255   -6.2951024    2.0257278  0.013292177  0.018979044            1 
   12800   0.95675511   -6.3106013    2.0537728  0.013370916  0.018955927            5 
   12900   0.98122375   -6.3074219    2.0865809  0.013479204  0.018937453            4 
   13000   0.97699511   -6.2921552    2.1219325  0.013602131   0.01893333            6 
   13100   0.98347268   -6.3577962    2.1600767  0.013740945  0.018936141            2 
   13200   0.99415762   -6.2979295    2.2013869  0.013897644  0.018951294            4 
   13300   0.95991358   -6.2939459    2.1873942  0.013705477   0.01895644            6 
   13400   0.94250833   -6.2993523    2.2156065  0.013778647  0.018953143            9 
   13500    1.0053442   -6.3406156    2.2257147  0.013738979  0.018946068            5 
   13600   0.95967862   -6.3229656    2.2364802  0.013703922  0.018933839            7 
   13700   0.96671777   -6.3406455    2.2347777  0.013593538  0.018913108            3 
   13800   0.97321755   -6.3784321    2.2524646  0.013601839  0.018884749            4 
   13900    0.9969669   -6.3262687    2.3027537  0.013805478  0.018864233            4 
   14000   0.96320529   -6.3211662    2.3308622  0.013874179  0.018851248            2 
   14100   0.95871097   -6.3370344    2.3493076  0.013884796  0.018838016            5 
   14200   0.90992352    -6.342274    2.3574413  0.013834749  0.018824223            3 
   14300   0.92823233    -6.342065    2.3292499  0.013573717  0.018793945            1 
   14400   0.97123906   -6.3143969    2.3316188  0.013493164  0.018747063            1 
   14500    1.0022718   -6.3001253    2.3636748  0.013584338  0.018705325            2 
   14600   0.98954493   -6.3720902    2.3769165  0.013566875  0.018665748            4 
   14700   0.97835926    -6.392136    2.4278537  0.013763342  0.018635955            8 
   14800   0.97186194    -6.297936    2.4778963  0.013952119  0.018616053            8 
   14900   0.99638549   -6.3456087    2.5199387  0.014093616  0.018610101            3 
   15000   0.92479595    -6.348554    2.5462819   0.01414601  0.018606276            5 
   15100   0.97847401   -6.3355156    2.5787696   0.01423162   0.01860724            7 
   15200   0.94083494   -6.3465387    2.6030421  0.014271064  0.018608908            1 
   15300   0.97360461   -6.3334837    2.6177554  0.014257926  0.018608886            8 
   15400   0.96974273   -6.3303018     2.648658  0.014332564  0.018609322            3 
   15500    1.0209192   -6.2793559    2.6668098  0.014337686  0.018613597            6 
   15600   0.98424255   -6.3282601    2.7015837  0.014431536  0.018620413            5 
   15700   0.93025595    -6.283907    2.7115446  0.014392487  0.018625403            7 
   15800    1.0357771   -6.3432881    2.7633316  0.014574533  0.018633071            2 
   15900   0.97273332    -6.367878    2.7915277  0.014630648  0.018646895            3 
   16000   0.99070648   -6.3439331    2.8287273  0.014732954  0.018661098            2 
   16100    1.0102502   -6.3175613    2.8703007  0.014856629  0.018683392            7 
   16200   0.98412508   -6.3333467    2.8873709   0.01485273  0.018707881            7 
   16300   0.93749429   -6.3835037    2.9242862  0.014950338  0.018732171            3 
   16400    0.9884676    -6.428688    2.9607697  0.015044561  0.018756471            3 
   16500   0.97743649   -6.3718854    3.0147345  0.015225932  0.018785793            2 
   16600   0.98861011   -6.2960868    3.0536866  0.015329751  0.018823574            3 
   16700    0.9150148   -6.2907233    3.0592042   0.01526549  0.018858724            2 
   16800   0.96037052   -6.4132867    3.0552993  0.015155254  0.018885049            5 
   16900    0.9737472   -6.3102254    3.1232224  0.015400504   0.01891491            3 
   17000   0.94223015   -6.2860088     3.139078  0.015387637   0.01894714            2 
   17100   0.94082386   -6.2638799    3.1511196  0.015356333  0.018971547            2 
   17200   0.90686872   -6.3293538    3.1666211  0.015342156  0.018994054            1 
   17300   0.97120333    -6.353236    3.1833311  0.015333965  0.019014592            6 
   17400     1.005685   -6.3839811    3.1736535  0.015199489  0.019029427            2 
   17500   0.95600447   -6.3611503    3.2093874  0.015282797  0.019041048            1 
   17600   0.96301662   -6.3015611    3.2003315  0.015153084  0.019052329            6 
   17700   0.96957199   -6.3272496    3.1987415  0.015059988  0.019053811            2 
   17800    1.0268489   -6.3172603    3.2559182  0.015243062  0.019055422            2 
   17900   0.96654862    -6.316588    3.2741722  0.015242887  0.019061864            2 
   18000   0.94552795   -6.3101181    3.3422832  0.015473533  0.019075939            8 
   18100    1.0038805   -6.3244465    3.3601777  0.015470431  0.019088278            6 
   18200   0.91291539   -6.2833394    3.3699266  0.015430066  0.019103137            7 
   18300    1.0009117   -6.3353698    3.4008287  0.015486469   0.01911669            3 
   18400   0.94552636    -6.292339    3.4438106  0.015596968  0.019132156            1 
   18500   0.96133367   -6.2183992     3.520211  0.015856806  0.019155015            2 
   18600    1.0177816   -6.2728404    3.5544082  0.015924768  0.019186435            6 
   18700   0.96556411   -6.3029028    3.5448352  0.015796948  0.019213389            8 
   18800   0.96770171   -6.3875925    3.5805569  0.015871263  0.019235897            4 
   18900   0.98183188   -6.3046908    3.5881508   0.01582077  0.019253587            6 
   19000   0.98178664   -6.2816641    3.5756813  0.015682812  0.019267861            2 
   19100   0.96052806   -6.3216648    3.5776394  0.015609247  0.019275862            2 
   19200   0.99611225   -6.2805347    3.6130976  0.015681847  0.019283936            3 
   19300   0.97751627   -6.2294521    3.6472541  0.015748074  0.019296172            3 
   19400   0.96095093   -6.3101713    3.6692015  0.015761174  0.019309382            3 
   19500   0.97207365   -6.3668934     3.674511  0.015703038  0.019316199            5 
   19600   0.96733883   -6.3187149    3.7255516   0.01583993  0.019325875            2 
   19700   0.95366018   -6.3031452     3.745997  0.015846011  0.019334112            5 
   19800   0.96294331   -6.3003569    3.7492709  0.015779759  0.019342708            3 
   19900   0.94691674   -6.3888385    3.7549515  0.015724252  0.019345653            5 
   20000    1.0020838   -6.3547252    3.7763177  0.015734656  0.019346034            2 
   20100   0.95936861   -6.3218233     3.827233  0.015867466  0.019349614            3 
   20200    1.0175246   -6.2805513     3.863472  0.015938415  0.019356841            3 
   20300   0.96594121   -6.3224352    3.8633199  0.015859277  0.019362297            1 
   20400    1.0393155    -6.357216    3.8914109  0.015896286  0.019368943            2 
   20500   0.94840376   -6.2567681    3.9410906  0.016020693  0.019375775            3 
   20600   0.98946816   -6.3206254    3.9718556  0.016067377   0.01938515            4 
   20700   0.97080658   -6.3058658    4.0052332  0.016124127  0.019395475            3 
   20800   0.95950848   -6.3574533    4.0745565  0.016324345  0.019413521            8 
   20900   0.94378737   -6.3160882    4.1212019  0.016432224  0.019434009           12 
   21000   0.95800486   -6.2897779    4.1627649  0.016518908  0.019456818            4 
   21100    1.0161847   -6.2776503    4.1979352  0.016579522  0.019482471            2 
   21200    1.0055476    -6.301317    4.1663741  0.016377256   0.01950406            1 
   21300   0.96174846    -6.308316    4.1831296  0.016365921  0.019520526            1 
   21400    1.0213982   -6.3093917    4.1999688  0.016355018  0.019535623            3 
   21500    1.0074308   -6.3229282     4.222582  0.016366597   0.01955086            3 
   21600   0.95546019   -6.3140212     4.213206  0.016254652  0.019562636            4 
   21700   0.94442297    -6.339729     4.238404  0.016276513  0.019569313            5 
   21800   0.98694643   -6.3239941    4.2764462  0.016347271  0.019577818            3 
   21900   0.90533886   -6.2970031    4.2675552  0.016238794  0.019584015            1 
   22000   0.95508895   -6.3085113    4.2873205   0.01623985  0.019586622            3 
   22100   0.96619913   -6.3442515    4.3248863  0.016308017  0.019589171            3 
   22200   0.92677927   -6.3539336    4.3375953  0.016282264   0.01959238            5 
   22300   0.99420565   -6.3530569    4.3336755  0.016194602  0.019591051            4 
   22400   0.98934666   -6.3659001    4.3476901  0.016174442  0.019588927            5 
   22500   0.96480598   -6.3403877    4.3365059  0.016061133  0.019583405            1 
   22600   0.99494212   -6.2731675    4.3723319  0.016122167  0.019577897            3 
   22700   0.95133977   -6.2645507    4.3852922  0.016098723  0.019573035            3 
   22800   0.98583735   -6.3924536     4.368152  0.015965468  0.019564444            3 
   22900   0.93286305   -6.3126564    4.3859382  0.015960474  0.019552561            2 
   23000   0.99735464   -6.3060813     4.457458   0.01615021  0.019545573            5 
   23100   0.94957218   -6.3388416    4.4821307  0.016169302   0.01954198            1 
   23200   0.98981327   -6.3047805    4.5355918  0.016291637   0.01954058            2 
   23300   0.95459769   -6.2822764    4.5595425  0.016307376   0.01954081            1 
   23400    0.9992249   -6.2752221     4.574001  0.016289177  0.019539701            4 
   23500    1.0234701   -6.2427104    4.5788267  0.016236974  0.019538109            1 
   23600   0.95923154   -6.2767481    4.5972633  0.016233274  0.019532664            2 
   23700    1.0015797   -6.3101095    4.6011771  0.016178541  0.019526183            2 
   23800    0.9592717   -6.3321164     4.565426  0.015985385  0.019515028            1 
   23900    1.0016829   -6.2997575    4.5740067  0.015948419  0.019501006            1 
   24000   0.97648782   -6.3250274    4.5600801  0.015833611  0.019485747            2 
   24100   0.98867044   -6.4043399    4.5686979   0.01579771  0.019463777            4 
   24200   0.95187016    -6.303129     4.566516  0.015724917   0.01944203            4 
   24300   0.93029285   -6.3413533    4.5845486  0.015722046  0.019418841            3 
   24400   0.93559892   -6.3276751    4.6211136  0.015782491  0.019395209            4 
   24500    1.0122003   -6.3274506    4.6835938  0.015930591  0.019378532            9 
   24600     0.996183   -6.3286039    4.7243135  0.016003772   0.01936385            1 
   24700   0.93354615   -6.3237035    4.7393539  0.015989723   0.01934987            1 
   24800   0.99351134   -6.3352363    4.7491396   0.01595813  0.019336812            1 
   24900    0.9781967   -6.2565342     4.776969  0.015987178  0.019324784            3 
   25000   0.98179748   -6.3797874    4.8014675  0.016004892  0.019311231            1 
   25100   0.94055452   -6.3652008    4.8230203  0.016012683  0.019297079            2 
   25200   0.94534465   -6.3321969    4.8823988  0.016145498  0.019282305           10 
   25300    1.0224413   -6.3759497    4.8901676  0.016107271  0.019271099            2 
   25400   0.95541788   -6.3703116    4.8869213  0.016033206  0.019255585            2 
   25500   0.96524858   -6.2898443    4.9416837  0.016149293  0.019243294            3 
   25600   0.97344713   -6.3065783    4.9388729   0.01607706  0.019232744            6 
   25700   0.98477282   -6.3100428    4.9361193  0.016005575  0.019220207            2 
   25800   0.98640733    -6.265902    4.9523812  0.015996063  0.019206583            2 
   25900    1.0244713   -6.3401458    4.9941226  0.016068605  0.019194493            4 
   26000   0.96666159    -6.311471    4.9868528  0.015983502  0.019181079            6 
   26100   0.95844391   -6.3624795    5.0252359  0.016044814  0.019168106            6 
   26200   0.99304364   -6.3430841    5.0916595  0.016194845  0.019158762            8 
   26300   0.95715259   -6.3058947    5.1594635   0.01634811  0.019153526            2 
   26400    0.9652192   -6.3666544    5.1776034  0.016343445  0.019148275            4 
   26500   0.97072367   -6.3245576      5.20942  0.016381823  0.019145411            4 
   26600   0.97148364   -6.2192171    5.2832768  0.016551619  0.019145707            2 
   26700   0.99917637    -6.267201    5.2979212  0.016535334  0.019149492            3 
   26800   0.96663096   -6.3174638    5.3251271  0.016558231  0.019151136            1 
   26900   0.97028026   -6.3028425    5.3124559  0.016457422  0.019149742            2 
   27000   0.94106233   -6.3493812    5.3196224  0.016418587  0.019146142            2 
   27100   0.96436483   -6.2931219    5.3378633  0.016414094  0.019141572            1 
   27200   0.97355673    -6.291018    5.3635544  0.016432458  0.019137614            2 
   27300   0.96642343   -6.3466912    5.3740731  0.016404374  0.019131841            2 
   27400   0.91451063   -6.2916017    5.3781455   0.01635689  0.019125084            2 
   27500   0.96017486   -6.2649755    5.4594896  0.016543907  0.019122105            4 
   27600    0.9674712   -6.3129127    5.5137358  0.016647753  0.019122915            3 
   27700   0.97878913   -6.3429914    5.5188908  0.016603161  0.019124345            6 
   27800   0.93758164   -6.2911642    5.5253009  0.016562652  0.019124877            3 
   27900    1.0076162   -6.2715599    5.5811102  0.016669982  0.019127127            2 
   28000   0.99241529   -6.3465947    5.5790625  0.016604352  0.019129487            4 
   28100   0.98155648   -6.3442724    5.5502394  0.016459784  0.019127257            2 
   28200    0.9891325    -6.297013    5.6124832  0.016585352  0.019125407           13 
   28300   0.97948235   -6.2978728    5.6247775  0.016562949  0.019123974           12 
   28400   0.94353132   -6.3471672    5.6253056  0.016506178  0.019121554            3 
   28500     1.011675   -6.3558671    5.6723133  0.016585711  0.019119182            4 
   28600    1.0218111    -6.307867    5.6946909  0.016592922  0.019117953            4 
   28700   0.94849198   -6.2980915    5.7211518  0.016611939  0.019117233            4 
   28800   0.97403568   -6.2744331    5.7615076  0.016671029  0.019117185            5 
   28900    1.0236918   -6.2545593    5.8350984  0.016825543  0.019119496           11 
   29000   0.98422305   -6.2652611    5.8332854  0.016762314  0.019123466            6 
   29100   0.96963972   -6.3070098    5.8408214  0.016726292   0.01912509            2 
   29200    1.0236254   -6.3080233    5.8396076  0.016665546  0.019124633           11 
   29300   0.94193029   -6.3024274    5.7945858  0.016480619  0.019120877           13 
   29400   0.97160197   -6.3621146    5.8068411    0.0164593  0.019114014           11 
   29500   0.97906467   -6.3055706    5.8620226  0.016559386  0.019107216           12 
   29600    1.0183008   -6.2813737    5.8703626  0.016526922  0.019102919           11 
   29700   0.96290454   -6.2836204    5.8666782  0.016460937  0.019097224           16 
   29800   0.96132888   -6.3844383     5.922408  0.016561543  0.019091131           15 
   29900   0.94908233   -6.3494281    5.9497968  0.016582488  0.019086016            9 
   30000   0.99525124   -6.3033384    6.0255386  0.016737607  0.019081902            6 
   30100   0.96350155   -6.3305041    6.0286606  0.016690644   0.01908014           10 
   30200   0.97896917   -6.3186391    6.0544804  0.016706623  0.019078281           12 
   30300    0.9918023    -6.291053    6.0911489  0.016752334  0.019077312            8 
   30400   0.96178012   -6.3195262    6.1134041  0.016758235  0.019077295            7 
   30500   0.99607558   -6.2775513    6.1826721  0.016892547  0.019078398           11 
   30600   0.96835403   -6.3087257    6.1811613  0.016833228  0.019080276           11 
   30700   0.98353254   -6.3330682    6.1361382  0.016656184  0.019077812            5 
   30800   0.91758773   -6.3365253    6.0978481  0.016498507  0.019072079            5 
   30900   0.98614946   -6.3539028     6.137281  0.016551459  0.019065508            5 
   31000   0.97653261   -6.3001461    6.1645353  0.016571331  0.019059831            5 
   31100    1.0119941   -6.3425474    6.1987111  0.016609622   0.01905521            4 
   31200   0.94329479   -6.3470246     6.245543  0.016681471   0.01905075            8 
   31300   0.99927763   -6.3242965     6.302389  0.016779523  0.019047696            3 
   31400    0.9700979   -6.3157636     6.328544  0.016795499  0.019046275            1 
   31500   0.96346676   -6.3647675    6.3540973  0.016809781  0.019045291            8 
   31600   0.92467604   -6.3568217    6.3621409  0.016777797  0.019044014            5 
   31700   0.95260232    -6.286674    6.4450746  0.016942888   0.01904323            2 
   31800   0.98937493   -6.3471738    6.4963568  0.017023996  0.019046085            2 
   31900   0.95728109   -6.3161048    6.4857672  0.016942965  0.019048367            3 
   32000   0.98969972   -6.3983531    6.5234033  0.016988029  0.019049962            6 
   32100   0.96763455   -6.2999181    6.5925683  0.017114663  0.019055135            1 
   32200   0.97274875   -6.2916618    6.6058301  0.017095833  0.019060977            4 
   32300   0.95548446   -6.4054478    6.6560618  0.017172502  0.019065716            4 
   32400   0.95121245   -6.3218914    6.6722737  0.017161198   0.01907033            1 
   32500   0.99298455   -6.3241527    6.6789356  0.017125476   0.01907498            2 
   32600   0.93210749    -6.340798    6.7056754  0.017141297  0.019078452            5 
   32700   0.97594568   -6.3000595    6.7201478  0.017125759  0.019082098            5 
   32800    0.9485198    -6.314312    6.7614199  0.017178404   0.01908596            2 
   32900   0.96470813   -6.3097095    6.7728107  0.017155042  0.019090255            4 
   33000   0.93032728   -6.3360985     6.777131  0.017113967  0.019092578            8 
   33100   0.99653709   -6.3305115    6.7644746  0.017030399   0.01909327            8 
   33200     0.956202   -6.3280674    6.7679665  0.016987867   0.01909306            2 
   33300    1.0054781    -6.318251    6.7900521  0.016992122  0.019093067            4 
   33400    0.9581503   -6.3042534    6.8136164  0.017000041  0.019093914            4 
   33500   0.95071536   -6.3365256    6.8024184  0.016921439  0.019093869           11 
   33600   0.93894582   -6.3501934    6.8430574  0.016971868  0.019094108           14 
   33700     1.032459   -6.3748219    6.9273478   0.01712994  0.019097619            5 
   33800   0.96405903   -6.2787467    6.9601332  0.017160092  0.019101358            2 
   33900    1.0139579   -6.2616017    7.0171579   0.01724965  0.019106424            7 
   34000    1.0032232   -6.3535443    7.0673157  0.017321852  0.019113149            5 
   34100   0.95955111   -6.3052968    7.0968245  0.017343168  0.019119926            3 
   34200   0.99445479   -6.2775407    7.1525542  0.017428251   0.01912758            5 
   34300    1.0545555   -6.2983227    7.1434319  0.017355276  0.019135173            4 
   34400   0.95284334   -6.3059302    7.1779301  0.017388396  0.019141866            4 
   34500   0.98453791   -6.3321098    7.1865119  0.017358724  0.019148129            6 
   34600   0.99214905   -6.2890481    7.2483392  0.017457464  0.019155043            3 
   34700    1.0020313   -6.2988124    7.2569211  0.017427764  0.019162638            3 
   34800   0.97375719   -6.3344255    7.2777342  0.017427524  0.019170054            1 
   34900   0.99193425   -6.2783312    7.2533922  0.017319465  0.019175594            2 
   35000   0.99860953   -6.2741444    7.2105179  0.017167899  0.019179512            2 
   35100    1.0056506   -6.3594259    7.2232613  0.017149243  0.019181157            4 
   35200   0.94995001    -6.267794    7.2651738  0.017199748  0.019182187            2 
   35300   0.96280154   -6.2264537    7.2812477   0.01718897  0.019184022            2 
   35400   0.97646376   -6.2836144    7.2579686  0.017085613  0.019183863            4 
   35500   0.94912855   -6.3423336    7.3041264  0.017145836  0.019181773            5 
   35600   0.91678807   -6.3705714    7.3083939  0.017107663  0.019179442            2 
   35700   0.96104094   -6.3582388    7.3480541   0.01715232    0.0191777            3 
   35800   0.93216991   -6.3302993    7.3961222  0.017216299  0.019176403            3 
   35900   0.97824558   -6.3092164    7.4232057  0.017231211  0.019175815            3 
   36000   0.97233125   -6.3203747    7.4396842  0.017221491  0.019176022            3 
   36100   0.97441348   -6.3625304    7.4712585  0.017246672   0.01917686            4 
   36200    0.9201117   -6.3615463    7.5678764  0.017421446  0.019179143            5 
   36300   0.93302242   -6.2987164     7.616695  0.017485525  0.019184342            3 
   36400   0.97260757   -6.2806355    7.6197598  0.017444505   0.01918929            3 
   36500    0.9935539   -6.2882201    7.6313335  0.017423136  0.019193431            2 
   36600   0.97180983   -6.3191652     7.630162  0.017372864  0.019197086            3 
   36700   0.98956514   -6.2405687    7.6497375  0.017369976   0.01920078            4 
   36800   0.97367787   -6.2787563     7.712979  0.017465985  0.019205099            5 
   36900   0.94372952   -6.3229426    7.7343838  0.017466991  0.019209151            7 
   37000   0.97128233   -6.3602543    7.7208748  0.017389357  0.019212389            3 
   37100   0.97664975   -6.3280602     7.707746  0.017312996  0.019213539            2 
   37200   0.95822384   -6.3393213    7.7353117  0.017328207  0.019214677            6 
   37300   0.95681011   -6.3240963    7.7554496  0.017326741   0.01921457            3 
   37400   0.96222048   -6.3756953    7.7691143   0.01731086   0.01921487            1 
   37500    1.0086853   -6.3320789    7.8086951  0.017352656  0.019216236            5 
   37600   0.95893471    -6.334504     7.844161  0.017385108  0.019217515            3 
   37700   0.93417978   -6.3598801    7.8492129  0.017350161  0.019218374            3 
   37800   0.98834643   -6.3729695    7.8662375  0.017341793  0.019218872            5 
   37900    1.0030691   -6.3469476    7.9586133   0.01749915  0.019221431            4 
   38000   0.99083746   -6.2582384    8.0391615   0.01762974  0.019225969            2 
   38100   0.94385886    -6.252289    8.0525975  0.017612855  0.019231289            3 
   38200   0.93898268    -6.322561    8.0104545  0.017474813   0.01923421            5 
   38300   0.97692885   -6.3270021    8.0422474  0.017498362  0.019235995            2 
   38400   0.96440427   -6.3305882     8.071447  0.017516161  0.019238458            5 
   38500    0.9478939   -6.3333951    8.1042079  0.017541575  0.019240642            2 
   38600   0.97021309   -6.4215829     8.090844   0.01746728  0.019242734            3 
   38700   0.97595019   -6.3397138    8.1494741  0.017548394  0.019244593            2 
   38800    1.0013322   -6.3308386    8.1945529  0.017599984  0.019247631            7 
   38900   0.94405479   -6.3095186    8.1920608  0.017549402  0.019251278            3 
   39000   0.97845017    -6.368518    8.1911506  0.017502458  0.019253609            8 
   39100    1.0256947   -6.3321022    8.2670302  0.017619416  0.019256143            6 
   39200   0.95630864   -6.3290453    8.2889551  0.017621078  0.019258899            6 
   39300   0.97441744   -6.3271514    8.3726213   0.01775365  0.019262781            2 
   39400    0.9350298   -6.2465501    8.3658156  0.017694195  0.019266598            4 
   39500   0.95263487    -6.320349    8.3629916  0.017643442  0.019269489            3 
   39600   0.96623812   -6.3350198    8.3671841   0.01760771   0.01927217            2 
   39700   0.96289351   -6.3623079     8.419469  0.017673108  0.019274969            3 
   39800   0.93428719    -6.363381     8.413558  0.017616327  0.019276866            4 
   39900   0.96979863   -6.3340599    8.4396483  0.017626667  0.019278104            4 
   40000   0.99062048   -6.3768138    8.3887895  0.017476645  0.019278767            2 
   40100   0.96770636   -6.3672553    8.4036776  0.017464001  0.019277738            3 
   40200   0.97273715   -6.3018943    8.4538663  0.017524598  0.019277761            1 
   40300   0.95302392    -6.366149    8.4856558  0.017546848  0.019279291            2 
   40400   0.92253715   -6.3742203    8.5206826  0.017575665  0.019280149            3 
   40500   0.98568994   -6.3734275    8.5527598  0.017598271  0.019281435            1 
   40600   0.94315556   -6.3392727    8.5720313  0.017594481  0.019282296            2 
   40700   0.90807964   -6.3615443    8.5718831  0.017550948  0.019283092            3 
   40800   0.98532568   -6.3774133     8.583696  0.017532059  0.019282782            1 
   40900   0.96560682   -6.2797866    8.5803111  0.017482296  0.019282626            4 
   41000   0.95645667   -6.3250854    8.6783618  0.017638946   0.01928324            8 
   41100   0.99506968   -6.3283864    8.6925008  0.017624697  0.019284217            7 
   41200   0.95041771   -6.3371342    8.6168594  0.017428922  0.019283342            8 
   41300    1.0070214   -6.3535865    8.6517993  0.017457222  0.019281294            5 
   41400   0.92741825   -6.3299152    8.6785635  0.017468928  0.019279121            5 
   41500   0.92971554   -6.3117548    8.6342996  0.017337951  0.019275537            5 
   41600    0.9746377    -6.323401    8.6674705  0.017362721  0.019271107            4 
   41700   0.96075707   -6.3216342    8.7213759  0.017428809  0.019268313            2 
   41800   0.93166674   -6.3271751    8.7502951  0.017444767  0.019266234            2 
   41900   0.99122749   -6.2743868    8.7907208  0.017483534   0.01926527            4 
   42000   0.96742361   -6.2457353     8.819068   0.01749815  0.019264854            3 
   42100   0.94859174   -6.2695944    8.7813566  0.017381941  0.019263798            5 
   42200    0.9432095   -6.2190094    8.8078021  0.017392974  0.019262061            7 
   42300   0.95835141   -6.2079348    8.8688635   0.01747215  0.019260945            2 
   42400    1.0173763   -6.2428758    8.9625664  0.017615107  0.019260995            8 
   42500   0.99599097   -6.2618334    9.0168344  0.017680067  0.019263156            1 
   42600   0.97345564   -6.2823698    9.0164858  0.017637883  0.019264843            5 
   42700    1.0047007   -6.3378509    9.0544067  0.017670583  0.019267669            3 
   42800   0.95303815   -6.3496638    9.0834487  0.017685842  0.019269272            5 
   42900   0.97811413   -6.3403531    9.0749263  0.017628062   0.01927032            3 
   43000   0.98787098   -6.2945511    9.0848085  0.017606218  0.019271994            5 
   43100   0.99822149   -6.2429593    9.1457517  0.017683201  0.019273792            5 
   43200   0.96811396   -6.3129757      9.15091  0.017652218  0.019275405            2 
   43300   0.96152002   -6.3612565    9.1321495  0.017575345  0.019274523            1 
   43400   0.96958225   -6.3544706    9.1511844  0.017571398  0.019273905            5 
   43500   0.99394467   -6.2963834    9.1823585  0.017590725  0.019273571            4 
   43600   0.95001723   -6.3437782    9.2028856  0.017589613  0.019273498            6 
   43700   0.93733657      -6.3857    9.1802929  0.017506279  0.019271441            4 
   43800   0.97457762   -6.3307777    9.1978369  0.017499689  0.019269109            4 
   43900   0.92279399   -6.2981551    9.2154713  0.017493301  0.019266432            2 
   44000   0.97063834   -6.4514001    9.1703241  0.017368038  0.019262978            2 
   44100   0.97506477   -6.3893559    9.2142914  0.017411737  0.019259002            5 
   44200   0.94785788   -6.3161451     9.306649  0.017546472  0.019257039            3 
   44300   0.96990749   -6.2998174    9.3481281  0.017584891  0.019255755            3 
   44400   0.93594913   -6.2194471    9.3652012  0.017577329  0.019255431            2 
   44500   0.98688865   -6.3493303    9.4163004  0.017633521  0.019255166            5 
   44600   0.98997738   -6.3797332    9.4286689  0.017617094  0.019255033            4 
   44700   0.95737535   -6.3180597    9.5127893  0.017734506  0.019255383            5 
   44800   0.98970495   -6.3215432    9.5610235  0.017784642  0.019257427            7 
   44900   0.98736871   -6.2598274     9.593401  0.017805124  0.019259317            3 
   45000   0.98827019   -6.3425634    9.5708044  0.017723712  0.019260919            4 
   45100   0.95259416   -6.3292023    9.5232338  0.017596515  0.019261228            2 
   45200    0.9640377   -6.3334992    9.5460052  0.017599567   0.01926065            3 
   45300    1.0038966    -6.299787    9.6320086  0.017718927  0.019260977            5 
   45400   0.96611491   -6.3476001    9.6138042  0.017646483  0.019261483           11 
   45500   0.96591152   -6.3227761    9.5786895  0.017543387  0.019260166           10 
   45600   0.92571447     -6.31099    9.6606805  0.017654752  0.019258429            7 
   45700   0.99366817   -6.3071245    9.7402581  0.017761229  0.019258481            3 
   45800   0.97578712   -6.3546147    9.7218019  0.017688868  0.019259458            7 
   45900   0.94684539   -6.3482232    9.7260345  0.017658015  0.019259207            9 
   46000   0.99679827   -6.4112119    9.8012402   0.01775587  0.019259317            5 
   46100   0.90414637   -6.3509366    9.7926986  0.017701913  0.019258671            2 
   46200   0.96403764   -6.3775418    9.8377382  0.017744838  0.019258713            5 
   46300   0.97297333   -6.3604861    9.8548215   0.01773726  0.019259358            1 
   46400   0.97138491   -6.3603727    9.8693774  0.017725175  0.019259733            3 
   46500   0.94602019   -6.3674547    9.9240718  0.017785075  0.019260427            3 
   46600    1.0006202   -6.3945909    9.9204681  0.017740465  0.019260652           11 
   46700    1.0274614   -6.3580635    9.9751253  0.017800009  0.019261178            6 
   46800   0.96366347   -6.3761476    9.9848415  0.017779276   0.01926211            4 
   46900   0.97565056   -6.3005837    10.059461  0.017873954  0.019264287            5 
   47000   0.96672121   -6.3558826     10.05735   0.01783218  0.019265794           10 
   47100   0.95719713   -6.2957384     10.10364   0.01787622  0.019267838            5 
   47200   0.94028666   -6.2893977    10.120854   0.01786874  0.019269761            2 
   47300   0.94876457   -6.3695252     10.11128  0.017814095  0.019271028            3 
   47400   0.98211363   -6.4327657    10.169817  0.017879425  0.019272233            4 
   47500    1.0014699   -6.3807016    10.193799  0.017883858  0.019273052            5 
   47600   0.97200055   -6.3651214    10.223695  0.017898625  0.019273551            2 
   47700   0.94044554   -6.3575524    10.242604  0.017894137  0.019274006            3 
   47800   0.96275928    -6.304481    10.191782    0.0177681  0.019274259            6 
   47900   0.96447364   -6.4014831     10.13078  0.017624877  0.019273432           10 
   48000   0.98431934   -6.3863269    10.174629  0.017664287  0.019271748            4 
   48100   0.98442538   -6.3247208    10.225765  0.017716155   0.01927134            2 
   48200   0.97713684    -6.352151    10.258596  0.017736161  0.019271096            4 
   48300    1.0345306   -6.3717008    10.263438  0.017707794  0.019270662            4 
   48400   0.95891899   -6.2622169    10.292886  0.017721911  0.019269278            6 
   48500   0.95687484   -6.2462612    10.329101  0.017747597  0.019268751            6 
   48600   0.91117412   -6.2836606    10.334635  0.017720568  0.019267428            3 
   48700   0.98556175   -6.3079791     10.41139   0.01781552  0.019267297            4 
   48800   0.93163958   -6.3079378      10.4609  0.017863558  0.019267628            6 
   48900   0.97009656   -6.2708291    10.457178  0.017820685  0.019268063            4 
   49000   0.94272462    -6.337226    10.531481  0.017910682  0.019268546            5 
   49100   0.93488504   -6.3054178    10.556231   0.01791621   0.01926901            4 
   49200   0.96513543    -6.310548    10.644197  0.018028789  0.019270215            1 
   49300    1.0039485   -6.3274764    10.692489  0.018073849  0.019272389            5 
   49400   0.93915826   -6.3342348    10.704829  0.018058078  0.019274861            7 
   49500   0.99273711   -6.3370073    10.708877  0.018028412  0.019277031            4 
   49600   0.97176165   -6.2840913    10.712884  0.017998797  0.019278986            4 
   49700   0.96397099   -6.3545012    10.656489  0.017868023  0.019280157            3 
   49800   0.90943108   -6.2920246    10.614077  0.017761173  0.019279855            5 
   49900   0.99061555   -6.3254271    10.693142  0.017857619  0.019279958            7 
   50000   0.99772125   -6.2768853    10.708881  0.017848134  0.019280573            3 
   50100    1.0061896   -6.2774197    10.674746  0.017755732  0.019281187            2 
   50200   0.94731387    -6.286625    10.640275  0.017663139   0.01927999            9 
   50300    1.0114219   -6.2867782    10.673926  0.017683774   0.01927876            9 
   50400    1.0137086    -6.282451    10.690613  0.017676277  0.019278284            5 
   50500   0.96799384   -6.2630246    10.739073  0.017721242   0.01927774            1 
   50600   0.99494102   -6.3385498    10.782359  0.017757508   0.01927678            4 
   50700    1.0005501   -6.2922971    10.788781  0.017733039  0.019275528            1 
   50800   0.99827591   -6.3079516    10.761901  0.017654036  0.019274263            1 
   50900   0.92816055   -6.2973548    10.779782  0.017648628  0.019271396            3 
   51000   0.98919712   -6.3200313    10.851908  0.017731875  0.019269003            5 
   51100   0.98356073   -6.2981175    10.851354  0.017696272  0.019267113            2 
   51200   0.97786719   -6.3636326    10.905025  0.017749063  0.019265027            2 
   51300    0.9434402   -6.2611009    10.947997   0.01778427  0.019263656            4 
   51400   0.99063887    -6.295236    10.975055  0.017793538  0.019262785            5 
   51500   0.94308221   -6.2545436    11.023342  0.017837122  0.019262154            3 
   51600   0.96066228   -6.3110514     11.05699  0.017856896  0.019261229            3 
   51700   0.93554763   -6.3715746    11.028423  0.017776311  0.019259334            3 
   51800   0.95967443    -6.352579    11.067123  0.017804252   0.01925754            5 
   51900    1.0180345   -6.3098209    11.082898  0.017795275    0.0192561            6 
   52000   0.93985311   -6.3164245     11.08852  0.017770065  0.019254696            3 
   52100   0.97866417   -6.2984124     11.11209  0.017773656  0.019253798            5 
   52200   0.98686496   -6.3417421    11.073647  0.017678236  0.019251972            4 
   52300    0.9604868   -6.3560482    11.105239  0.017694771  0.019249345            3 
   52400   0.96751585   -6.3208996    11.144655  0.017723687  0.019247228            5 
   52500    1.0130126   -6.3624225     11.18864  0.017759746   0.01924495            2 
   52600   0.91884482   -6.3250338    11.216696  0.017770431  0.019242979            3 
   52700   0.95274456   -6.3108211     11.18443   0.01768569   0.01924008            4 
   52800   0.97764693   -6.3020742    11.216578  0.017702932  0.019237117            7 
   52900    0.9562935   -6.3649213    11.234122  0.017697105  0.019234513            3 
   53000   0.95638312   -6.2876752     11.24684  0.017683711  0.019231585            2 
   53100     0.977319   -6.2909332    11.306258  0.017743657  0.019229293            3 
   53200   0.95651741   -6.3053584    11.317389   0.01772774   0.01922793            5 
   53300    1.0045024   -6.3402907    11.418935  0.017853244  0.019227148            4 
   53400   0.98535692    -6.323189    11.527692  0.017989532  0.019228382            3 
   53500   0.96924733   -6.3899742    11.559798  0.018005916  0.019229302            2 
   53600   0.97931151   -6.3331628    11.546822  0.017952149  0.019231053            9 
   53700   0.95562049   -6.3442864    11.651128  0.018080583  0.019232826            4 
   53800   0.99482147   -6.3373689     11.69616  0.018116728  0.019235607            6 
   53900   0.97020955   -6.3831198    11.673516  0.018048107  0.019237901            8 
   54000   0.95512808   -6.3610289    11.736175  0.018111381  0.019239701           16 
   54100   0.94512221   -6.3698031    11.784197  0.018151874  0.019241607           11 
   54200   0.91625596   -6.3845634    11.822585  0.018177406  0.019243431           16 
   54300    0.9753596   -6.3394126    11.852845  0.018190369  0.019245371           10 
   54400   0.95504201   -6.3175763    11.868362  0.018180701  0.019248346            4 
   54500   0.90613342   -6.3441487    11.798497  0.018040514  0.019250194            9 
   54600    1.0184748   -6.4339585    11.802725  0.018013927  0.019250419            4 
   54700   0.92620169   -6.3305896    11.779321  0.017945339  0.019249793            1 
   54800   0.95372261    -6.319231    11.795491  0.017937183   0.01924892            2 
   54900   0.98278373   -6.3768318    11.755205   0.01784336  0.019247324            3 
   55000   0.92702901   -6.3413065    11.834051   0.01793038  0.019246327            3 
   55100   0.98689491   -6.3282963    11.873106  0.017956905  0.019246347            8 
   55200   0.96411888   -6.3682169    11.828277  0.017856699  0.019245592            5 
   55300    0.9185594   -6.3482297    11.831693  0.017829555  0.019244089            3 
   55400   0.97260175    -6.305165    11.928458  0.017942928  0.019243649            4 
   55500   0.93584537   -6.2877164    12.028865  0.018061359  0.019244101            3 
   55600    1.0056059   -6.2828965    12.099176  0.018134256   0.01924545            4 
   55700   0.91373237   -6.2544916    12.178958  0.018221061  0.019247562            2 
   55800   0.97271219    -6.299693    12.195193  0.018212654  0.019249787            2 
   55900   0.94815618   -6.2755072    12.178053  0.018154521  0.019251906            2 
   56000   0.92433318   -6.3382005     12.06421  0.017952694  0.019252152            2 
   56100   0.99849232   -6.3588752    12.139323  0.018032267  0.019252233            5 
   56200   0.95975902    -6.339842    12.127781  0.017983067  0.019252287            7 
   56300   0.97453304   -6.3357795    12.146011  0.017978109  0.019252412            2 
   56400   0.98570172     -6.37048    12.192121  0.018014363  0.019253237            5 
   56500   0.96532232    -6.388213    12.244985   0.01806045  0.019253369            2 
   56600   0.96410093   -6.3620348    12.316118  0.018133272  0.019254089            1 
   56700   0.93860402   -6.3400991    12.372874  0.018184706  0.019254683            2 
   56800   0.95903711   -6.3111214    12.390822  0.018179022  0.019256628            1 
   56900    0.9866797   -6.2722718    12.361171  0.018103648  0.019258314            2 
   57000   0.98503242   -6.2592209     12.41748   0.01815421  0.019260339            3 
   57100   0.94592458   -6.2655847    12.361839  0.018041212    0.0192622            3 
   57200   0.94725551   -6.3168976    12.358937  0.018005445  0.019262803            7 
   57300   0.99014436   -6.3156041    12.506014   0.01818792  0.019263964            6 
   57400    0.9452553   -6.2925688    12.553408  0.018225041  0.019266109            3 
   57500   0.95899576   -6.3858083    12.536919  0.018169447  0.019267865            8 
   57600   0.97683622   -6.3437238    12.531414  0.018129939  0.019269086            5 
   57700   0.95642145   -6.3421942    12.600444  0.018198215  0.019270486            3 
   57800   0.96267766   -6.3377658    12.583793  0.018142723  0.019271148            3 
   57900    0.9935689   -6.4115932    12.475779  0.017955928  0.019270677            4 
   58000   0.96986705    -6.434151    12.471483  0.017918797   0.01926885            3 
   58100   0.98096667   -6.3451992    12.527273  0.017967976  0.019267021            7 
   58200   0.95252597   -6.3598683    12.551684  0.017972055  0.019266375            6 
   58300   0.97524542   -6.4307472    12.502168  0.017870451  0.019264589            9 
   58400   0.98028217   -6.3129608    12.550157  0.017908328  0.019262943            2 
   58500   0.99033156    -6.366704    12.549523  0.017876814  0.019261179            5 
   58600   0.95104027   -6.4169021     12.45213  0.017707807  0.019257953           14 
   58700   0.94577725   -6.3760405     12.46379  0.017694194  0.019253674            4 
   58800   0.97298311   -6.3407499    12.565465  0.017808199   0.01925035            5 
   58900   0.93415435   -6.3471673    12.650068  0.017897663  0.019248059            4 
   59000    0.9461468   -6.4083805     12.64742  0.017863587  0.019245628            4 
   59100   0.96578842   -6.3298136     12.66708  0.017861082  0.019243323            5 
   59200   0.97458215   -6.3799342     12.71777  0.017902267  0.019241926            4 
   59300    0.9005117   -6.3726999    12.727493   0.01788574  0.019239946            8 
   59400   0.95918454   -6.3751602    12.773661    0.0179204  0.019238992            6 
   59500     1.008853    -6.389282    12.820632  0.017956067  0.019238271            4 
   59600   0.93995046   -6.4268332    12.863091  0.017985306  0.019237761            6 
   59700    0.9094168   -6.3535864    12.913542  0.018025602  0.019236918            8 
   59800   0.97091203   -6.3817952    12.957762  0.018057082  0.019236687            4 
   59900    0.9482747   -6.2805277     12.98241  0.018061226  0.019236314            5 
   60000   0.98791347   -6.3476286    13.019101  0.018082084   0.01923636            3 
   60100   0.93420672   -6.3701948    13.024929  0.018060079  0.019236211            3 
   60200   0.95731402   -6.4136512    13.115073  0.018154863  0.019235962            3 
   60300   0.97779114   -6.3491593    13.105184  0.018111089  0.019236232            4 
   60400   0.98895231   -6.3178209    13.091965  0.018062865  0.019236851            3 
   60500    1.0110879   -6.3205603    13.092178  0.018033303  0.019236905            2 
   60600   0.99255673   -6.3584522    13.023285  0.017908808  0.019236149            6 
   60700   0.94828472   -6.3115777     13.06114  0.017931273  0.019234607            7 
   60800    0.9796489    -6.305308    13.133438  0.018000874  0.019233739            2 
   60900    0.9586732    -6.354084    13.143952  0.017985703  0.019233202            2 
   61000    1.0354321   -6.3383758    13.226407  0.018068861  0.019232449            3 
   61100   0.97924231   -6.3567805    13.266196  0.018093557  0.019232439           14 
   61200   0.93010444   -6.3399135    13.240562  0.018029087  0.019232004            5 
   61300   0.88962738   -6.3890825    13.324985  0.018114444  0.019231308            2 
   61400   0.93197841   -6.3337384    13.393635  0.018178115  0.019231273            5 
   61500   0.97509879   -6.3220626    13.451395  0.018226823  0.019232438            2 
   61600   0.94923813     -6.36064    13.435343  0.018175517  0.019233219            4 
   61700   0.96488159   -6.3903157    13.404827  0.018104845  0.019233021            4 
   61800   0.93608169   -6.4225981    13.340237  0.017988453  0.019232671            2 
   61900   0.96145342   -6.3465513    13.390961   0.01802768  0.019231856            2 
   62000   0.95003052   -6.2974517    13.436245  0.018059469  0.019230947            2 
   62100   0.98478429   -6.2591534    13.455288  0.018055941  0.019230684            5 
   62200   0.96586217    -6.311906    13.415516  0.017973628  0.019230008            2 
   62300    0.9623001   -6.3269617    13.481358  0.018032849  0.019229064            1 
   62400    1.0173463   -6.3014468    13.535681  0.018076497  0.019228766            2 
   62500   0.97785016   -6.3115303    13.552708  0.018070278  0.019228962            1 
   62600   0.91979707   -6.2463094     13.63381  0.018149374  0.019229428            6 
   62700   0.95402351   -6.3081248       13.679  0.018180489  0.019229916            8 
   62800   0.95534729   -6.4251616    13.655448  0.018120287  0.019230094            4 
   62900   0.99854088     -6.40511    13.635254  0.018064724  0.019230276            1 
   63000    1.0106349   -6.3883416    13.648442  0.018053494  0.019230127            1 
   63100    1.0164806   -6.2957613    13.752011  0.018161662  0.019231259            1 
   63200   0.97105994   -6.3070701    13.783666  0.018174665  0.019232673            3 
   63300   0.95085329    -6.392543    13.757765  0.018111855  0.019233573            3 
   63400   0.97102529   -6.3158248     13.85795  0.018214971   0.01923456            2 
   63500   0.93885888   -6.3405472    13.822503  0.018139767  0.019235279            2 
   63600      0.98883    -6.323714    13.933452   0.01825662  0.019236029            3 
   63700   0.99494545   -6.3073511    13.933576  0.018228122  0.019237588            2 
   63800   0.99879628   -6.3259901    13.862295  0.018106446  0.019238712            3 
   63900   0.96423119   -6.3192728    13.783189  0.017974946  0.019238772            4 
   64000   0.94595543    -6.341647    13.864739  0.018053046  0.019238372            4 
   64100   0.98288148   -6.3276879    13.983831  0.018179707  0.019238964            8 
   64200   0.96931778   -6.3413422    14.003223  0.018176561  0.019239705            3 
   64300    1.0173223   -6.3914277    13.956367  0.018087567  0.019239579            2 
   64400    0.9891705   -6.2847309    13.944105  0.018043614  0.019239264            5 
   64500   0.96249659   -6.3309654     13.92588  0.017992093  0.019238455            5 
   64600   0.99409345     -6.32321    13.989095  0.018045788  0.019237678            1 
   64700   0.94873478   -6.3042045    14.102559  0.018164038  0.019237344            3 
   64800    1.0105459   -6.3061281    14.106823  0.018141491  0.019237734            4 
   64900    1.0042419   -6.2958301    14.042785   0.01803131  0.019237727            5 
   65000    0.9459743   -6.3087177    14.045546   0.01800711  0.019236895            3 
   65100   0.99144132   -6.2786957    14.141061  0.018101717  0.019236176            6 
   65200   0.96698227    -6.266018    14.158717   0.01809652  0.019235741            5 
   65300    0.9615515   -6.2098566     14.17624  0.018091168  0.019235237            8 
   65400    1.0289824   -6.2704391     14.22119  0.018120782  0.019235491            6 
   65500   0.96086361   -6.3016968    14.265182  0.018149086   0.01923536            2 
   65600    1.0007022   -6.2746914    14.309801  0.018178101  0.019235375            2 
   65700    0.9763063   -6.2470526    14.351628  0.018203486  0.019236148            5 
   65800   0.95833065   -6.2511199    14.371491  0.018200976  0.019236997            2 
   65900   0.94310748   -6.3381444    14.413414  0.018226371  0.019238061            6 
   66000   0.96587619   -6.3429736       14.425  0.018213384  0.019238603            3 
   66100    1.0191571   -6.3074475    14.473158  0.018246544  0.019239248            2 
   66200   0.98081236   -6.3332268    14.487821  0.018237438  0.019240088            4 
   66300   0.92863131   -6.3344252    14.478414  0.018198107  0.019239954            2 
   66400   0.98599876   -6.3644957    14.506195  0.018205566  0.019239756            4 
   66500   0.98472354   -6.3408598    14.451081  0.018109124  0.019239767           20 
   66600    1.0110308   -6.2934446    14.530672  0.018181521  0.019239667            4 
   66700    0.9488441   -6.2717153    14.539578   0.01816539   0.01923957            6 
   66800    0.9424235   -6.3041983    14.550907  0.018152329  0.019239201            6 
   66900   0.95928623   -6.3434312    14.569206  0.018147989  0.019238882            5 
   67000    0.9514547   -6.3965924    14.524689  0.018065533  0.019237906            8 
   67100   0.97193927   -6.3486615    14.671701  0.018221189  0.019237123            9 
   67200   0.94445167   -6.3288092    14.616533  0.018125661  0.019236492            1 
   67300   0.97579802   -6.4112871     14.61933  0.018102191  0.019235312            6 
   67400   0.99335211   -6.3363768    14.660793  0.018126598  0.019234175            5 
   67500    0.9985332   -6.2710247    14.761572  0.018224163  0.019234512           10 
   67600   0.94202928   -6.3020531    14.687051  0.018105339  0.019234298           15 
   67700   0.99990095   -6.3657971    14.725763  0.018126247  0.019233882           11 
   67800    1.0170114   -6.3240593    14.755585  0.018136167  0.019233587            9 
   67900   0.95835268   -6.3539772    14.770357  0.018127586  0.019233669            6 
   68000   0.98353191   -6.3888353    14.861418  0.018212522  0.019233872            6 
   68100   0.98881332   -6.3579091     14.91396  0.018250074  0.019234581            6 
   68200    1.0384237   -6.3295612    14.935975  0.018250214  0.019235764           14 
   68300   0.94632729   -6.3140422    15.037603   0.01834749  0.019237455           12 
   68400   0.99635292   -6.2934397    15.130411  0.018433737   0.01923973           11 
   68500   0.96055319   -6.3140359    15.187886  0.018476747   0.01924223            4 
   68600   0.93620071   -6.3472338    15.148107  0.018401491  0.019244004            2 
   68700   0.94329524   -6.4101894    15.134712  0.018358456  0.019245061            2 
   68800   0.94535998   -6.3883831    15.205399  0.018417392  0.019246526            2 
   68900   0.95534897   -6.3148011    15.280689  0.018481723  0.019248318            2 
   69000   0.96370838   -6.3221081    15.281403    0.0184558  0.019250296            4 
   69100   0.97151939   -6.3904366    15.226355  0.018362705  0.019251378            4 
   69200   0.95598802   -6.3482696    15.200834  0.018305436  0.019251656            4 
   69300    1.0021762   -6.3373551    15.299021  0.018397091  0.019252856            4 
   69400     0.952309   -6.3494894     15.24825  0.018309618  0.019253657            2 
   69500   0.98157274   -6.3906332    15.280045  0.018321397  0.019254405            1 
   69600   0.95382144   -6.3636953    15.334271  0.018359999  0.019255267            3 
   69700   0.94977491   -6.3263623     15.46517   0.01849016  0.019256496            3 
   69800   0.95889633   -6.2780513     15.41756  0.018406829  0.019257907            3 
   69900   0.90025235   -6.2474626    15.293005  0.018232004  0.019258732            3 
   70000     1.027452   -6.3356613    15.307937  0.018223735  0.019259085            8 
   70100   0.94206687   -6.3116325    15.291099  0.018177721  0.019259997            8 
   70200   0.96189644   -6.2940595    15.356409  0.018229355  0.019260853            8 
   70300   0.98695898   -6.3422129    15.458003  0.018323854  0.019261901            5 
   70400   0.94705471   -6.3880384    15.518835  0.018369834  0.019262926            4 
   70500   0.94325095   -6.2951677    15.545935  0.018375809  0.019264082            1 
   70600   0.96580954   -6.3153963    15.590163  0.018401986  0.019265227           10 
   70700   0.97389483   -6.3942363    15.567533  0.018349285  0.019266249            4 
   70800   0.97564143   -6.3463426    15.579946  0.018337977   0.01926689            1 
   70900   0.98223322   -6.3369499    15.644414  0.018387887  0.019267968            3 
   71000   0.94947569   -6.2995544    15.583908  0.018290971  0.019269038            3 
   71100    1.0212951   -6.3021232    15.653528  0.018346845  0.019269644            5 
   71200   0.96503136   -6.2316627    15.687237   0.01836053  0.019271175            3 
   71300   0.98785737   -6.3405682      15.6276  0.018265076  0.019271818            2 
   71400    0.9823297   -6.3932971    15.611612  0.018220836  0.019272072            4 
   71500   0.97582042   -6.4067597    15.550607   0.01812425  0.019271071            3 
   71600   0.96732885   -6.3596031    15.633184  0.018195046  0.019270171            3 
   71700   0.97542177   -6.3455325    15.741324  0.018295355  0.019269788            8 
   71800   0.99858674   -6.3322811    15.669274  0.018186252  0.019269447            2 
   71900   0.95276357   -6.3384926    15.706698  0.018204333   0.01926857            5 
   72000   0.92221022   -6.3257529    15.781448  0.018265565  0.019267815            8 
   72100   0.95691962   -6.2941064    15.858155  0.018328889  0.019267652            3 
   72200   0.95549667   -6.3460532     15.79371  0.018229121  0.019267424            1 
   72300   0.97042896   -6.3279197    15.830277  0.018246054  0.019267016            2 
   72400    0.9658933   -6.2290291    15.960645  0.018370908  0.019267566            3 
   72500   0.97888394   -6.3117975    16.024361  0.018418805  0.019268548            1 
   72600    0.9104172   -6.3191692    15.921608  0.018275491  0.019268584            1 
   72700   0.98414178   -6.3698137    15.952043  0.018285239  0.019268421            2 
   72800   0.97044967   -6.3053527     15.92809  0.018232704  0.019268256            7 
   72900   0.93403159   -6.3414461    15.945075  0.018227109  0.019267809            5 
   73000   0.92846261    -6.368938    15.942515  0.018199218  0.019266972            4 
   73100   0.95919493   -6.3798861     15.96746  0.018202758  0.019266173            3 
   73200   0.94305013    -6.375105    16.075229  0.018300579  0.019266276            4 
   73300   0.98882315   -6.3130434    16.214871  0.018434368  0.019267873            3 
   73400   0.97494346   -6.3575457    16.270661  0.018472594  0.019269915            6 
   73500   0.94486927   -6.3998496    16.245702  0.018419163  0.019271415            3 
   73600   0.98342554   -6.3975719     16.26547   0.01841652  0.019272593            3 
   73700    1.0049489   -6.3416698      16.3083  0.018439959   0.01927413           10 
   73800    1.0272007   -6.2708548    16.421228  0.018542488  0.019276196            5 
   73900   0.98005976   -6.3060745     16.35491  0.018442614  0.019277978            4 
   74000   0.97901583    -6.295593    16.346027  0.018407688  0.019279384            4 
   74100   0.96636182   -6.3495788    16.308797  0.018340977  0.019280487            6 
   74200   0.96613201   -6.2749003    16.364565  0.018378891  0.019281136            6 
   74300    1.0084842    -6.308532    16.419667  0.018415956  0.019281985            7 
   74400   0.97280136   -6.3529696    16.362819   0.01832753  0.019282397            2 
   74500   0.93278929   -6.3003388    16.425093  0.018372587  0.019283139            4 
   74600    0.9873792   -6.3114593    16.402366  0.018322572  0.019283936            4 
   74700   0.95654772   -6.3163963    16.499316  0.018406198  0.019284979            7 
   74800   0.98790541   -6.3091438    16.589253  0.018481788  0.019286611           11 
   74900   0.95779411   -6.3230899    16.602367  0.018471704  0.019288446           13 
   75000   0.98269461   -6.3237047    16.613525  0.018459472  0.019289529           13 
   75100   0.99040475   -6.2929478    16.688321  0.018517888  0.019291107            5 
   75200   0.97409144   -6.2735156    16.731845  0.018541495  0.019293046            2 
   75300   0.96420561   -6.2816383    16.679419  0.018458852  0.019294683           17 
   75400   0.93794518   -6.3391466    16.747956  0.018510119  0.019295915           11 
   75500   0.96019936   -6.3497034    16.790339  0.018532382  0.019296916            8 
   75600   0.92120609   -6.3490431    16.789067  0.018506468  0.019298025           10 
   75700   0.96876669   -6.3641022    16.805152  0.018499726  0.019299038            6 
   75800   0.94217792   -6.3281734    16.811388  0.018482177  0.019300191            7 
   75900   0.96951458    -6.298571    16.837898  0.018486932  0.019300969            8 
   76000   0.94416777   -6.2949302    16.880404  0.018509214  0.019302127            6 
   76100   0.95805505     -6.38606    16.772176  0.018366378  0.019302178            3 
   76200   0.96206885    -6.415809    16.738717  0.018305683   0.01930149            3 
   76300   0.94432123     -6.46318    16.710178  0.018250522  0.019300721            7 
   76400   0.97525998    -6.369746    16.894768  0.018427976  0.019300817            3 
   76500    0.9515756   -6.3138512    16.894601  0.018403705  0.019301132            5 
   76600   0.92092987   -6.3690315    16.819705    0.0182982  0.019301122            3 
   76700    0.9623888   -6.3548654    16.881708  0.018341707  0.019300872            5 
   76800   0.99163952   -6.3218406    16.931454  0.018371803  0.019301441            3 
   76900   0.92281899   -6.3368375    17.019881  0.018443737  0.019301816            4 
   77000   0.96021797    -6.346946    17.035007  0.018436154  0.019302274            4 
   77100    1.0061297   -6.3277925    16.950103  0.018320475  0.019302454            2 
   77200     1.034678   -6.3004755     17.01575  0.018367606   0.01930256            3 
   77300   0.96086639   -6.2872858    16.909496  0.018229297  0.019302331            2 
   77400   0.95439488   -6.3414984    16.843046  0.018134201  0.019300731            2 
   77500   0.99205338   -6.3233522    16.802669  0.018067386  0.019299046            5 
   77600   0.94898015    -6.287292    16.879581  0.018126697  0.019297191            3 
   77700   0.95596369   -6.3327495    16.952535  0.018181611  0.019295612            4 
   77800   0.96649583   -6.3894606    17.001568  0.018210762  0.019294063            3 
   77900   0.95099244   -6.2967348    17.150698  0.018346917  0.019292864            2 
   78000    0.9962594   -6.3250659    17.166432  0.018340205  0.019292395            2 
[...]
   82800    1.0134156   -6.3273608    18.365645  0.018483942  0.019296679            3 
   82900    1.0098625   -6.2249456    18.392902  0.018489045  0.019297685            2 
   83000    1.0047962   -6.3161267    18.351101    0.0184248  0.019298576            1 
   83100   0.93947689   -6.2475584    18.352005  0.018403535  0.019298789            2 
   83200   0.94942524   -6.2051345    18.416561  0.018446075  0.019299321            2 
   83300   0.98567273   -6.3062873    18.380275   0.01838763  0.019299609            2 
   83400   0.98054411   -6.3349496    18.353439  0.018338768  0.019299392            1 
   83500   0.95635162   -6.3371276    18.417941  0.018381178  0.019299119            1 
   83600   0.96945254   -6.3345329    18.470741  0.018411823  0.019298979            4 
   83700   0.93078805   -6.3740997     18.38214  0.018301613  0.019298543            3 
   83800   0.96862079   -6.3471144     18.45013  0.018347384   0.01929782            2 
   83900   0.94390382   -6.2817679    18.515586   0.01839053  0.019297446            2 
   84000     0.918157   -6.3232768    18.605965  0.018458299  0.019297155            3 
   84100   0.94486198   -6.3268348    18.513258  0.018344488  0.019296504            6 
   84200   0.91368042    -6.359769    18.504908  0.018314438  0.019295618            1 
   84300   0.95442817   -6.3548594    18.456604  0.018244962  0.019294174            4 
   84400    0.9827844   -6.3030857     18.56948  0.018334795  0.019293225            4 
   84500   0.96589107   -6.3227093    18.566903  0.018310555  0.019292426            2 
   84600   0.99026693   -6.3272585    18.448799  0.018172576  0.019291129            6 
   84700   0.94458968   -6.2544305    18.447865  0.018150202  0.019289228            1 
   84800   0.96419747   -6.3457275    18.519902  0.018199589  0.019287441            3 
   84900    1.0026495   -6.3276448    18.563804  0.018221245  0.019285715            4 
   85000   0.95018077   -6.3010712    18.558646  0.018194751  0.019284167            8 
   85100   0.96211447   -6.3658004    18.500474  0.018116406  0.019281903            5 
   85200   0.99399601   -6.3144288    18.581897  0.018174781  0.019279689            3 
   85300   0.97895919   -6.3165557    18.529789  0.018102568  0.019277593            3 
   85400   0.99883406   -6.3993212    18.519227  0.018071065  0.019275019            3 
   85500   0.96308161   -6.3961633    18.530554  0.018060969  0.019272103            2 
   85600   0.91011613   -6.2134391     18.67369  0.018179216  0.019269468            4 
   85700    1.0075897    -6.302738    18.566268  0.018053547  0.019267189            8 
   85800   0.98453593    -6.382948    18.652855  0.018116603  0.019264575            5 
   85900   0.97930493   -6.2943704    18.700255  0.018141496  0.019262127            5 
   86000   0.98791155   -6.2977957    18.664736  0.018085984  0.019259474            2 
   86100    0.9765396   -6.3364999    18.608528  0.018010577  0.019256375            4 
   86200   0.90889356   -6.3117474    18.547502  0.017930686  0.019253056            3 
   86300   0.94141332   -6.2794109    18.548334  0.017910713  0.019249177            5 
   86400   0.99802686   -6.2947128    18.467025  0.017811559  0.019245222            4 
   86500   0.97333099   -6.3178943    18.443965  0.017768752    0.0192409            4 
   86600    1.0482431   -6.3640695    18.552294  0.017852477  0.019236672            7 
   86700   0.93884948   -6.2918408    18.594546  0.017872497   0.01923268            3 
   86800   0.94123071   -6.3100645    18.548403  0.017807606  0.019228231            3 
   86900   0.90898904   -6.3083491    18.552152  0.017790709  0.019223572            4 
   87000    1.0013734   -6.3431651    18.617917  0.017833254  0.019219059            7 
   87100    1.0251151   -6.3051099    18.548933  0.017746779  0.019214905            6 
   87200   0.96972411   -6.3229352    18.594535  0.017770007  0.019210506            3 
   87300    1.0148908   -6.3497242    18.682179  0.017833313   0.01920623            3 
   87400   0.88818799   -6.2697292    18.712727  0.017842035  0.019202174            1 
   87500   0.98377537   -6.3234659    18.684123  0.017794402  0.019198137            4 
   87600   0.95774993   -6.2907243    18.733195  0.017820771  0.019194308            2 
   87700    1.0398336   -6.3521714    18.871655  0.017932017  0.019190916            6 
   87800   0.97750459   -6.3200801    18.792791  0.017836742  0.019187692            1 
   87900    0.9460113   -6.3465852    18.759634  0.017785015  0.019183781            4 
   88000   0.97850289   -6.3445144      18.7897  0.017793276  0.019179709            2 
   88100    1.0244915   -6.3218365    18.874405  0.017853202  0.019175704            9 
   88200   0.98922094   -6.2393266    18.934258  0.017889511  0.019172337            4 
   88300   0.95268495   -6.2880783    18.879733  0.017817792  0.019168787            2 
   88400    1.0081474   -6.3787071    18.905756  0.017822168  0.019164969            3 
   88500   0.97415366    -6.265399    18.868314  0.017766774  0.019161151            5 
   88600   0.98820305   -6.2774159     18.91942  0.017794789  0.019157408            2 
   88700    0.9748522   -6.3160919     18.89563  0.017752377  0.019153477            3 
   88800    1.0056587   -6.3408648    18.886633  0.017723942  0.019149378            3 
   88900    1.0141881   -6.2445593    19.055482  0.017862281  0.019145748            2 
   89000   0.95165201   -6.2789897    18.970449  0.017762593  0.019142275            2 
   89100   0.96916612   -6.2468647    19.083133  0.017848048  0.019138499            3 
   89200   0.98827822   -6.2877277    19.178462  0.017917098  0.019135204            3 
   89300   0.96419585   -6.2590851    19.231027  0.017946087  0.019132005            8 
   89400    1.0256681   -6.3317659    19.206517  0.017903167  0.019129219            6 
   89500   0.95105937   -6.3161176    19.280654  0.017952192   0.01912615            4 
   89600   0.98227648   -6.3073363    19.285214  0.017936397  0.019123056            3 
   89700   0.93532603   -6.3082701    19.356018  0.017982179  0.019119759            7 
   89800   0.97650539    -6.344817     19.39599  0.017999248  0.019116624            6 
   89900    1.0394212   -6.4111547    19.380552  0.017964917  0.019113624            5 
   90000   0.91339685   -6.3449645    19.423383  0.017984614  0.019110262            6 
   90100   0.91301346   -6.2648328    19.583356  0.018112611  0.019107492            1 
   90200   0.98978606   -6.3377415    19.468172  0.017986116  0.019104999            1 
   90300   0.94999168   -6.3016388    19.458794  0.017957543  0.019102074            4 
   90400   0.92185921   -6.2983079    19.514441  0.017988976  0.019099046            5 
   90500   0.95060444   -6.2796737    19.467272  0.017925665  0.019096105            6 
   90600   0.98134684   -6.2291786    19.456597   0.01789606  0.019093298            7 
   90700   0.94431828   -6.2390141     19.51981  0.017934408  0.019090478            5 
   90800    1.0030641   -6.2319632    19.551029  0.017943308  0.019087774            3 
   90900   0.98527763   -6.2757556    19.603815  0.017971961  0.019085409            3 
   91000   0.95268831   -6.3309461    19.673362  0.018015899  0.019082837            2 
   91100   0.96597616   -6.2686948    19.683812  0.018005682  0.019080032            2 
   91200    0.9534104    -6.369932     19.70909  0.018009036  0.019077196            5 
   91300   0.97332362   -6.3316825    19.792242  0.018065208  0.019074697            2 
   91400   0.90186848   -6.3028214    19.807456  0.018059314  0.019072595            2 
   91500   0.97314496   -6.3324915    19.821636  0.018052492  0.019070456            2 
   91600   0.98433534   -6.3455555    19.862044  0.018069545  0.019068531            2 
   91700   0.99824607   -6.3001344    19.893708  0.018078615  0.019066939            1 
   91800     1.059024   -6.2948002    19.947534  0.018107783  0.019065689            2 
   91900    1.0104122   -6.3068204    19.948436  0.018088897  0.019064657            3 
   92000   0.93564192   -6.2659102    19.867457  0.017995885  0.019062854            2 
   92100   0.97074244    -6.313691    19.922688  0.018026319  0.019060695            3 
   92200   0.98523567   -6.3128367    20.066201  0.018136479  0.019058848            1 
   92300   0.93261201   -6.2767368    20.105441  0.018152258  0.019056994            2 
   92400   0.96709868   -6.3094367    20.019222  0.018054854  0.019054981            2 
   92500   0.99749232   -6.3246393    20.097476  0.018105834  0.019053087            4 
   92600    1.0085415   -6.2724485     20.17075  0.018152222  0.019051629            2 
   92700   0.96942446   -6.3529519    20.190514  0.018150408  0.019050036            1 
   92800   0.97233135   -6.3274942    20.205268  0.018144098  0.019048291            4 
   92900   0.90840549   -6.3415236    20.162455  0.018086163  0.019046385            3 
   93000   0.98729189   -6.3639577    20.300319   0.01819025  0.019044896            4 
   93100    0.9903436   -6.3201572    20.356715  0.018221191  0.019044126            8 
   93200    1.0056016   -6.3223905    20.362102  0.018206458  0.019043271            9 
   93300   0.95089087   -6.3369183    20.318372  0.018147885  0.019042248            5 
   93400   0.96318652   -6.3117523     20.32176  0.018131477   0.01904115            7 
   93500   0.98214977   -6.2920256    20.303877  0.018096147  0.019040195            4 
   93600   0.95620265   -6.2799483    20.244366   0.01802383  0.019038868            3 
   93700    1.0094115   -6.3076512    20.364827  0.018111728  0.019037637            3 
   93800    1.0072818   -6.3212179    20.426666  0.018147358  0.019036707            2 
   93900   0.94196191   -6.2728784    20.435434  0.018135813  0.019035656            9 
   94000   0.96572662   -6.2323029    20.417858  0.018100938  0.019034377            5 
   94100   0.93958442   -6.2624175    20.453079  0.018112893  0.019032989            4 
   94200   0.95627057   -6.3261414    20.501506  0.018136506  0.019031686            6 
   94300    0.9898663     -6.30187    20.530648  0.018143026  0.019030405            3 
   94400   0.91280686   -6.2909507    20.548805  0.018139835  0.019029165           14 
   94500   0.98384906   -6.3105125    20.569984  0.018139316  0.019027904           13 
   94600    1.0142054   -6.3128677    20.475632  0.018037026  0.019026651           10 
   94700   0.98247014   -6.2840252    20.468606  0.018011797  0.019025188            6 
   94800   0.97526098   -6.3517759    20.543711  0.018058817  0.019023717           10 
   94900    0.9948041    -6.395265    20.518882  0.018017986  0.019022067            6 
   95000    1.0359135   -6.3807984    20.613665  0.018082162  0.019020352            4 
   95100   0.96712385   -6.3594796    20.615403  0.018064671  0.019018403            3 
   95200   0.99195603   -6.3318361     20.57525  0.018010548  0.019016712            8 
   95300   0.93247651    -6.310402    20.650239  0.018057222  0.019014674            5 
   95400   0.96288886    -6.259468    20.779942  0.018151592  0.019013237            3 
   95500   0.98799303   -6.2842765    20.773785  0.018127212  0.019012159            4 
   95600   0.97580884   -6.3566568    20.852559  0.018176917  0.019010912            2 
   95700   0.99037547   -6.3257383    20.923855  0.018220006  0.019009747            3 
   95800   0.99147504    -6.312937    20.902762  0.018182639  0.019008579            7 
   95900   0.94150451   -6.3038378     20.92089  0.018179431  0.019007406            9 
   96000   0.95922749   -6.3692348    21.081134  0.018299596  0.019006345            3 
   96100   0.96650549   -6.4244964    21.108301  0.018304111  0.019005459            5 
   96200   0.93875342   -6.3378005    21.086723  0.018266392  0.019004205            4 
   96300   0.95115192   -6.2648454    21.212603  0.018356354  0.019003549            6 
   96400   0.95542391   -6.2822944    21.202369  0.018328465  0.019003298            3 
   96500   0.96514172   -6.4024328    21.138847  0.018254617  0.019002458            3 
   96600   0.94550032   -6.3619607    21.130256  0.018228309  0.019001227            2 
   96700   0.99384459   -6.3078507    21.159747  0.018234874  0.019000315            2 
   96800   0.95989786   -6.3091658    21.089672  0.018155709  0.018999061            2 
   96900     0.965613   -6.3468217    21.167248  0.018203687  0.018997779            2 
   97000    0.9980773   -6.3356861    21.195008   0.01820877  0.018996638            3 
   97100    0.9901333   -6.3500568    21.103802  0.018111742  0.018995498            4 
   97200    1.0097865   -6.2917946    21.311346  0.018271044  0.018994596            5 
   97300   0.98233732   -6.3039563    21.276295  0.018222246  0.018993901            5 
   97400   0.97245551   -6.3369667    21.309043  0.018231556  0.018993139            3 
   97500   0.94160878   -6.3597191    21.240755  0.018154491   0.01899219            3 
   97600   0.96582411   -6.3175201    21.207701  0.018107668  0.018990777            5 
   97700    1.0036882   -6.3088938    21.323699  0.018188075  0.018989787            4 
   97800   0.96854982   -6.2780176    21.287724  0.018138824  0.018988688            8 
   97900    0.9535345   -6.3020004      21.3596  0.018181477  0.018987556            9 
   98000   0.98118698   -6.2774208    21.437535  0.018229196  0.018986626            8 
   98100   0.94877748   -6.3037633     21.46182  0.018231244  0.018985576           12 
   98200   0.97457872   -6.3500494    21.384353  0.018146939  0.018984143           11 
   98300   0.93444296   -6.3441033    21.536571  0.018257521  0.018982797           11 
   98400   0.98178022   -6.3407566    21.622088  0.018311389  0.018981792            4 
   98500   0.96086422   -6.3802914      21.4989  0.018188579  0.018980778            1 
   98600   0.98710069   -6.4588748    21.465302  0.018141736  0.018979041            3 
   98700   0.98478111   -6.3812178    21.553055  0.018197446  0.018977679            5 
   98800   0.97979719   -6.3659784    21.624939  0.018239658  0.018976599            6 
   98900   0.92757935   -6.3341259     21.57398  0.018178277  0.018975737            2 
   99000   0.99435308   -6.3708538    21.610407  0.018190578  0.018974801            4 
   99100   0.98429202   -6.3172051    21.742723  0.018283487  0.018974346            2 
   99200   0.99651464   -6.3415333    21.701163  0.018230143  0.018973945            5 
   99300   0.95267417   -6.3498563    21.665837  0.018182139  0.018973162            1 
   99400   0.97727008   -6.2680088    21.669619  0.018167018  0.018972205            3 
   99500     1.017172   -6.3366187    21.802438  0.018259998  0.018971695            3 
   99600   0.93906742   -6.3187692    21.841834  0.018274627  0.018971095            3 
   99700   0.93571146   -6.2555433    21.936222  0.018335191  0.018970447            6 
   99800    0.9903768   -6.3502193    21.817258  0.018217483  0.018969761            3 
   99900   0.92698107   -6.3402955    21.802412  0.018186863   0.01896831            3 
  100000   0.93656086   -6.2960673    21.831381  0.018192817  0.018966903            3 
  100100   0.91028061    -6.377015    21.801563   0.01814982  0.018965374            2 
  100200   0.95764645   -6.3571478     21.91266  0.018224102  0.018964003            5 
  100300   0.95510739   -6.3306709    21.997241  0.018276206  0.018963101            5 
  100400    0.9815132   -6.2674334    22.046747  0.018299093  0.018962469            4 
  100500   0.96963847   -6.2895972    22.010472  0.018250806  0.018961975            2 
  100600   0.92394975   -6.3059617     21.86108  0.018108913  0.018960753            1 
  100700   0.99072819   -6.3180966     21.87655  0.018103732  0.018959361            2 
  100800    1.0308626    -6.352778    21.941845  0.018139752  0.018958216            6 
  100900   0.96087727   -6.3361798    21.922993  0.018106205  0.018956901            2 
  101000   0.95898991   -6.2693421    22.020459  0.018168695   0.01895597            4 
  101100    1.0010489   -6.2787786    21.990885  0.018126347  0.018955285            7 
  101200    0.9447497   -6.2978995    22.038873  0.018147952  0.018954232            8 
  101300   0.95681852   -6.3254218    22.172519  0.018239979  0.018953266            5 
  101400    1.0053506   -6.2803448     22.28017  0.018310462  0.018953006            6 
  101500   0.99485951   -6.3096764    22.250202  0.018267817  0.018953023            2 
  101600   0.95711597   -6.3141708    22.166578  0.018181249  0.018952454            1 
  101700   0.96825387   -6.3072738    22.290279  0.018264732  0.018951928            1 
  101800   0.99154367   -6.3399439    22.340583  0.018287969  0.018951765            2 
  101900   0.92506753   -6.3017479    22.455857  0.018364293  0.018951773            3 
  102000   0.99151848   -6.3048419    22.613903  0.018475411  0.018952243            2 
  102100   0.98259465   -6.3194998    22.508629  0.018371392  0.018952955            1 
  102200   0.97125807   -6.3546574    22.466621  0.018319162  0.018952882            1 
  102300   0.95362083   -6.2614993    22.533332  0.018355598  0.018952714            3 
  102400     1.012733   -6.3517629    22.593315  0.018386487  0.018952519            1 
  102500    0.9569819   -6.3479989    22.562432   0.01834344  0.018952335            2 
  102600   0.96168479   -6.3229219    22.584115  0.018343173  0.018952033            1 
  102700    1.0128131   -6.3248387    22.742969   0.01845421  0.018952336            2 
  102800   0.97160756   -6.3366997    22.696799  0.018398832   0.01895255            5 
  102900   0.94244389    -6.294953    22.612883  0.018312992  0.018952516            3 
  103000   0.98153776   -6.2860034    22.759475  0.018413815  0.018952396            3 
  103100   0.98739892   -6.2585135    22.847455  0.018467067  0.018953156            2 
  103200   0.97542925   -6.3632964    22.802258  0.018412676  0.018953398            2 
  103300   0.95115794   -6.3748953    22.816664  0.018406473  0.018953547            2 
  103400   0.94600701   -6.4368056    22.755192  0.018339129  0.018953355            3 
  103500   0.94639242   -6.3456523    22.845219  0.018393896  0.018952782            6 
  103600   0.95230597   -6.3227417    22.872143  0.018397798  0.018952572           10 
  103700   0.97526926   -6.3511013    22.805047  0.018326139  0.018952299            8 
  103800   0.94296256   -6.3820801    22.782964  0.018290754   0.01895157            5 
  103900   0.97749883   -6.4114848    22.798519  0.018285626  0.018950798            7 
  104000   0.97280304   -6.3648344    22.840236  0.018301471  0.018949989            9 
Loop time of 189.956 on 12 procs for 100000 steps with 864 atoms

Performance: 90968.280 tau/day, 526.437 timesteps/s
99.4% CPU use with 12 MPI tasks x no OpenMP threads

MPI task timing breakdown:
Section |  min time  |  avg time  |  max time  |%varavg| %total
---------------------------------------------------------------
Pair    | 9.1369     | 9.9591     | 10.65      |  14.0 |  5.24
Neigh   | 0.98417    | 1.027      | 1.0724     |   2.5 |  0.54
Comm    | 7.7174     | 8.5298     | 9.4638     |  17.4 |  4.49
Output  | 1.9674     | 1.9684     | 1.9759     |   0.2 |  1.04
Modify  | 166.59     | 166.76     | 166.96     |   0.8 | 87.79
Other   |            | 1.712      |            |       |  0.90

Nlocal:        72.0000 ave          77 max          65 min
Histogram: 1 0 0 1 3 1 1 2 1 2
Nghost:        1548.25 ave        1561 max        1534 min
Histogram: 1 2 0 1 1 2 2 1 0 2
Neighs:        8000.83 ave        8652 max        6690 min
Histogram: 1 0 0 1 0 1 3 2 1 3
FullNghs:      16004.7 ave       17258 max       14476 min
Histogram: 1 0 1 2 2 0 2 1 2 1

Total # of neighbors = 192056
Ave neighs/atom = 222.28704
Neighbor list builds = 5461
Dangerous builds = 0

#clear
#
#next RN
#
#jump SELF



Total wall time: 0:03:10
