
units lj                  # Use reduced LJ style units
atom_style atomic         # Uncharged point particles
atom_modify map hash      # Needed for indexing of clusters etc
                          # Used to be able to find where atoms are in relation to each other.

# Define a lattice with which to populate the simulation cell. With units
# set to 'lj' the second argument to the lattice command is the reduced
# density rho* and the spacings are multiples of that required to acheive
# that density. Also define a simulation cell called 'box' in lattice units
# and fill it with atoms. Here we're creating a box which is ten lattice
# constants in each direction.
lattice fcc 1.0 spacing 1 1 1                 # All equal sizes - gives the right reduced density.
Lattice spacing in x,y,z = 1.5874011 1.5874011 1.5874011

region box block 0 6 0 6 0 6 units lattice # Defines a region, "box", in lattice units
create_box 1 box                              # Creates a simulation box as specified above,
Created orthogonal box = (0.0000000 0.0000000 0.0000000) to (9.5244063 9.5244063 9.5244063)
  2 by 2 by 3 MPI processor grid
                                              # with one type of atom
create_atoms 1 box                            # Creates particles on lattice points
Created 864 atoms
  using lattice units in orthogonal box = (0.0000000 0.0000000 0.0000000) to (9.5244063 9.5244063 9.5244063)
  create_atoms CPU = 0.001 seconds


# Set the mass of the first (and only) atom type.
mass 1 1.0

# Lennard-Jones interactions between particles, 3.5 sigma cut-off. Apply
# long range tail corrections to energy and pressure and set all coefficients
# to unity since we work in reduced units here. Note that this doesn't shift
# the potential such that it goes to zero at the cutoff. That would require
# pair_modify('shift', 'yes').
pair_style lj/cut  3.5      # non-GPU version
pair_modify tail  yes
pair_coeff 1  1  1.0  1.0   # Intearaction between 1 and 1 set with epsilon = 1 and sigma = 1

write_data data.*
System init for write_data ...
Neighbor list info ...
  update every 1 steps, delay 10 steps, check yes
  max neighbors/atom: 2000, page size: 100000
  master list distance cutoff = 3.8
  ghost atom cutoff = 3.8
  binsize = 1.9, bins = 6 6 6
  1 neighbor lists, perpetual/occasional/extra = 1 0 0
  (1) pair lj/cut, perpetual
      attributes: half, newton on
      pair build: half/bin/atomonly/newton
      stencil: half/bin/3d
      bin: standard

#############################
#   M E L T   S Y S T E M   #
#############################

velocity all create 2.4 2750902 mom yes dist gaussian # Assign velocities
                                                    # Temperature 2.4, random number seed, zero linear momentum
						                                                        # Gaussian distribution

timestep 0.002   # simulation timestep
thermo 100       # output thermodynamic data every 100 steps

# Define a fix  in this case with index 1 applied to all
# particles in the simulation. This fix is for simulations
# in the anisotropic NPT ensemble. Note that we use the MTK
# correction.
fix 1 all npt temp 2.4 2.4 0.1 iso 5.68 5.68 0.5 mtk yes tchain 5 pchain 5 # Use NPT ensemble
                                                                         # Set temperature and pressure and damping
                                                                         # Numbers of thermostats in chain and in barostat
run 1000         # run for 10000 steps
Per MPI rank memory allocation (min/avg/max) = 3.633 | 3.633 | 3.634 Mbytes
Step Temp E_pair E_mol TotEng Press Volume 
       0          2.4   -8.3859253            0    -4.790092     -2.24275          864 
     100    1.3007594   -6.4407842            0   -4.4919034    5.3582762    891.69205 
     200    1.5828213   -6.0796178            0   -3.7081338    6.4338598    907.46239 
     300    1.7629056     -5.73851            0   -3.0972122    5.5953229    954.02439 
     400    1.8733232   -5.2785237            0   -2.4717912    6.0585808    994.36537 
     500      2.02574   -4.9360708            0   -1.9009777    5.7478153    1042.8978 
     600    2.2112838   -4.6895875            0   -1.3765009    5.7138268    1079.0368 
     700    2.3146746   -4.4629638            0  -0.99497044    5.6088298    1118.0222 
     800    2.4734008     -4.39503            0   -0.6892229    5.7937797    1123.7282 
     900    2.4206618   -4.2767239            0  -0.64993368    5.5531987    1146.9555 
    1000    2.3618098   -4.2459295            0  -0.70731524    5.7000582    1143.3852 
Loop time of 0.19489 on 12 procs for 1000 steps with 864 atoms

Performance: 886654.206 tau/day, 5131.101 timesteps/s
99.6% CPU use with 12 MPI tasks x no OpenMP threads

MPI task timing breakdown:
Section |  min time  |  avg time  |  max time  |%varavg| %total
---------------------------------------------------------------
Pair    | 0.066736   | 0.085101   | 0.10184    |   4.5 | 43.67
Neigh   | 0.011599   | 0.013878   | 0.015792   |   1.4 |  7.12
Comm    | 0.059657   | 0.078077   | 0.098609   |   5.3 | 40.06
Output  | 0.00020627 | 0.00021236 | 0.00024622 |   0.0 |  0.11
Modify  | 0.015415   | 0.015943   | 0.016455   |   0.2 |  8.18
Other   |            | 0.001678   |            |       |  0.86

Nlocal:        72.0000 ave          80 max          66 min
Histogram: 2 1 2 2 1 0 2 0 0 2
Nghost:        1314.75 ave        1327 max        1295 min
Histogram: 1 0 0 2 3 0 0 1 2 3
Neighs:        6211.67 ave        7136 max        5326 min
Histogram: 2 0 0 2 1 4 1 0 0 2

Total # of neighbors = 74540
Ave neighs/atom = 86.273148
Neighbor list builds = 80
Dangerous builds = 2

# Equilibrate just above the melting temperature to avoid step fn in T

fix 1 all npt temp 1.25 1.25 0.1 iso 5.68 5.68 0.5 mtk yes tchain 5 pchain 5
run 1000
Per MPI rank memory allocation (min/avg/max) = 3.634 | 3.634 | 3.634 Mbytes
Step Temp E_pair E_mol TotEng Press Volume 
    1000    2.3618098   -4.2459295            0  -0.70731524    5.7000582    1143.3852 
    1100    1.8617945   -4.5967525            0    -1.807293    5.9593679    1083.5566 
    1200      1.66126   -5.0091582            0   -2.5201524    5.9308167    1028.0056 
    1300    1.4533368   -5.3154554            0   -3.1379734    5.5185254    997.93023 
    1400    1.3100587   -5.5224566            0    -3.559643    5.2858775     978.0358 
    1500    1.3306301   -5.7450087            0   -3.7513736    5.2687861    956.68836 
    1600    1.2302857    -5.777427            0   -3.9341343     5.385203    950.58576 
    1700    1.2545134   -5.8251615            0   -3.9455694    5.6370291    940.07281 
    1800    1.2669685   -5.8434457            0   -3.9451925    6.1076728    931.13358 
    1900    1.2975362   -5.8185374            0   -3.8744858    5.5765884    942.23221 
    2000    1.2225624   -5.8503078            0   -4.0185867    5.1330896    948.19804 
Loop time of 0.169764 on 12 procs for 1000 steps with 864 atoms

Performance: 1017884.161 tau/day, 5890.533 timesteps/s
99.8% CPU use with 12 MPI tasks x no OpenMP threads

MPI task timing breakdown:
Section |  min time  |  avg time  |  max time  |%varavg| %total
---------------------------------------------------------------
Pair    | 0.072101   | 0.078884   | 0.084713   |   1.6 | 46.47
Neigh   | 0.010048   | 0.010852   | 0.011525   |   0.5 |  6.39
Comm    | 0.056855   | 0.063305   | 0.070775   |   2.0 | 37.29
Output  | 0.00018016 | 0.00018433 | 0.00021306 |   0.0 |  0.11
Modify  | 0.014441   | 0.014634   | 0.014963   |   0.1 |  8.62
Other   |            | 0.001905   |            |       |  1.12

Nlocal:        72.0000 ave          79 max          65 min
Histogram: 1 1 0 4 0 1 1 3 0 1
Nghost:        1466.08 ave        1476 max        1447 min
Histogram: 1 1 0 0 2 0 0 4 1 3
Neighs:        7466.67 ave        8131 max        6694 min
Histogram: 1 0 2 0 3 1 3 0 0 2

Total # of neighbors = 89600
Ave neighs/atom = 103.70370
Neighbor list builds = 67
Dangerous builds = 0


# Small amount of linear quench

fix 1 all npt temp 1.25 ${temp} 0.1 iso 5.68 5.68 0.5 mtk yes tchain 5 pchain 5
fix 1 all npt temp 1.25 0.63 0.1 iso 5.68 5.68 0.5 mtk yes tchain 5 pchain 5
run 2000
Per MPI rank memory allocation (min/avg/max) = 3.634 | 3.634 | 3.634 Mbytes
Step Temp E_pair E_mol TotEng Press Volume 
    2000    1.2225624   -5.8503078            0   -4.0185867    5.1330896    948.19804 
    2100    1.2379894   -5.8693029            0   -4.0144681    5.3929856    940.93564 
    2200      1.20947   -5.9196336            0   -4.1075283    5.7371785    929.19466 
    2300    1.1788959   -5.9341843            0   -4.1678871     6.330809    917.52265 
    2400    1.1628559   -5.9890827            0   -4.2468178    5.8566995    920.70329 
    2500     1.088106    -6.013478            0    -4.383208    5.9213886    915.30875 
    2600    1.0653454   -6.0821218            0   -4.4859533    5.6860469    913.29388 
    2700    1.0690641   -6.1609307            0   -4.5591905    5.4738631    910.72918 
    2800   0.96919705   -6.1073055            0   -4.6551926    6.0641406    904.90318 
    2900   0.97955526   -6.2052667            0   -4.7376344    6.0155797     896.5355 
    3000   0.97278581   -6.2486599            0     -4.79117    5.9134817    895.21365 
    3100   0.93846212   -6.2959183            0   -4.8898544     6.036249    889.48038 
    3200   0.91820935   -6.3080261            0   -4.9323062    6.0591014    887.28584 
    3300    0.8806007   -6.4260228            0   -5.1066506    5.6265978    883.91199 
    3400   0.83300008   -6.4926487            0   -5.2445948    5.4741923    880.66509 
    3500   0.80097102   -6.5350906            0   -5.3350246    5.7118907    872.67464 
    3600   0.79228201   -6.5819514            0   -5.3949038    5.9740299    865.98834 
    3700   0.75180226   -6.6277075            0   -5.5013093    5.8281816    864.15892 
    3800   0.74051329   -6.6902728            0   -5.5807884    5.7006467    860.37017 
    3900   0.68155025   -6.7019449            0   -5.6808028    5.8133926    857.28058 
    4000   0.65780511   -6.7857035            0   -5.8001378     5.536501    855.00654 
Loop time of 0.346561 on 12 procs for 2000 steps with 864 atoms

Performance: 997227.020 tau/day, 5770.990 timesteps/s
99.8% CPU use with 12 MPI tasks x no OpenMP threads

MPI task timing breakdown:
Section |  min time  |  avg time  |  max time  |%varavg| %total
---------------------------------------------------------------
Pair    | 0.15816    | 0.17212    | 0.19782    |   2.4 | 49.66
Neigh   | 0.016996   | 0.017951   | 0.019787   |   0.6 |  5.18
Comm    | 0.094741   | 0.12207    | 0.13655    |   3.0 | 35.22
Output  | 0.00039749 | 0.00040886 | 0.0004669  |   0.0 |  0.12
Modify  | 0.02871    | 0.029375   | 0.029872   |   0.2 |  8.48
Other   |            | 0.004643   |            |       |  1.34

Nlocal:        72.0000 ave          78 max          65 min
Histogram: 1 1 1 2 1 0 2 1 1 2
Nghost:        1588.50 ave        1601 max        1573 min
Histogram: 2 0 0 1 1 2 3 0 0 3
Neighs:        8334.75 ave        9286 max        7532 min
Histogram: 1 4 1 1 0 0 1 1 0 3

Total # of neighbors = 100017
Ave neighs/atom = 115.76042
Neighbor list builds = 108
Dangerous builds = 0

#############################
# F R E E Z E  S Y S T E M  #
#############################

# Define solid atoms. This closely follows ten Wolde  Ruiz-Montero and Frenkel  Faraday Discuss  1996  104  93-110
# Compute components of the per-atom q6 vector
compute q6 all orientorder/atom degrees 1 6 components 6 nnn NULL cutoff 1.3 # compute the Q6 parameter.
                                                                             # Use all neighbours within 1.3 unit cell.

# get number of connections
compute coord_number all coord/atom orientorder q6 0.5

# An atom is solid if it has 8 or more connections (of a possible 14)
variable is_solid atom c_coord_number>=8
group solid dynamic all var is_solid    # Must be dynamic to update
dynamic group solid defined

# do clustering
compute cluster solid cluster/atom 1.3 # Create a cluster where all atoms within are solid and max 1.3 units from another member

# define chunks one chunk per cluster
compute clus_chunks solid chunk/atom c_cluster nchunk every compress yes  # Says which atoms are in which chunk

# count the size of each chunk
compute size_chunks solid property/chunk clus_chunks count


# Find the maximum entry in the vector of chunk sizes
variable max_n equal max(c_size_chunks)


# Thermo style which includes this variable
# thermo_style custom step temp pe vol v_max_n

thermo ${N}  # Print the thermo information every 100 steps
thermo 100  

# Reset the npt fix at a lower temperature (below freezing)

compute myRDF all rdf 100
fix 2 all ave/time 1 50 100 c_myRDF[*] file pcf.rdf mode vector


compute msd all msd com yes
variable twopoint equal c_msd[4]/6/(step*dt+1.0e-6)
fix 9 all vector 10 c_msd[4]
variable fit equal slope(f_9)/6/(10*dt)
thermo_style custom step temp pe c_msd[4] v_twopoint v_fit v_max_n


fix 1  all npt temp  ${temp} ${temp}  0.1  iso  5.68  5.68  0.5  mtk yes tchain  5  pchain  5
fix 1  all npt temp  0.63 ${temp}  0.1  iso  5.68  5.68  0.5  mtk yes tchain  5  pchain  5
fix 1  all npt temp  0.63 0.63  0.1  iso  5.68  5.68  0.5  mtk yes tchain  5  pchain  5

dump dmp2 all dcd ${N} traj.dcd
dump dmp2 all dcd 100 traj.dcd
dump dmp3 all dcd ${N} traj_unwrap.dcd
dump dmp3 all dcd 100 traj_unwrap.dcd
dump_modify dmp3 unwrap yes


# fix rnuntil all halt ${N} v_max_n >= 3980 error soft message no   # Stop when solidified

run 100000 # 5000000  # Run for this many steps
Neighbor list info ...
  update every 1 steps, delay 10 steps, check yes
  max neighbors/atom: 2000, page size: 100000
  master list distance cutoff = 3.8
  ghost atom cutoff = 3.8
  binsize = 1.9, bins = 5 5 5
  5 neighbor lists, perpetual/occasional/extra = 1 4 0
  (1) pair lj/cut, perpetual
      attributes: half, newton on
      pair build: half/bin/atomonly/newton
      stencil: half/bin/3d
      bin: standard
  (2) compute orientorder/atom, occasional
      attributes: full, newton on
      pair build: full/bin/atomonly
      stencil: full/bin/3d
      bin: standard
  (3) compute coord/atom, occasional
      attributes: full, newton on
      pair build: full/bin/atomonly
      stencil: full/bin/3d
      bin: standard
  (4) compute cluster/atom, occasional
      attributes: full, newton on
      pair build: full/bin/atomonly
      stencil: full/bin/3d
      bin: standard
  (5) compute rdf, occasional, copy from (1)
      attributes: half, newton on
      pair build: copy
      stencil: none
      bin: none
Per MPI rank memory allocation (min/avg/max) = 9.704 | 9.707 | 9.710 Mbytes
Step Temp PotEng c_msd[4] v_twopoint v_fit v_max_n 
    4000   0.65780511   -6.7857035            0            0 8.3333333e+20            6 
    4100   0.64558584   -6.8114211  0.029806297 0.00060581898  0.026853838            8 
    4200   0.62978038   -6.8061018  0.048761452 0.00096748902  0.022071868            8 
    4300   0.63849395   -6.8298788  0.057489724 0.0011141418  0.016289028           11 
    4400   0.62634815   -6.8434698  0.066138834 0.0012526293  0.013030018            9 
    4500   0.65021811   -6.8994339  0.074471134 0.0013790949  0.011282065           10 
    4600   0.60989446   -6.8686195  0.088238435 0.0015985222  0.010489134           16 
    4700   0.62589352   -6.8639335  0.099671843 0.0017672311  0.010196491            6 
    4800    0.6148885   -6.8561727   0.11113529 0.0019294319 0.0099608574           15 
    4900   0.61064031   -6.8945266   0.12528831 0.0021307533  0.009965958            9 
    5000   0.62306898    -6.919489   0.13580916 0.0022634858 0.0099596868           48 
    5100   0.64054569   -6.9044296    0.1437696 0.0023491762 0.0098698945           50 
    5200   0.65109242   -6.9233774   0.15452941 0.0024764326 0.0097302653           30 
    5300    0.6597123    -6.844246   0.16105037 0.0025322383 0.0095635904           54 
    5400   0.63589501   -6.9102579   0.16342225 0.0025219481 0.0092839131           63 
    5500   0.63035928   -6.9293058   0.16381373 0.0024820259 0.0088856044           65 
    5600   0.62762819   -6.8449946   0.16844745 0.0025066583 0.0084743125           46 
    5700   0.63457857   -6.8818049   0.17349356 0.0025364553 0.0081175115           57 
    5800   0.63085317   -6.9040869   0.18220682 0.0026179139 0.0078239268           35 
    5900   0.64817494   -6.9257721   0.18464078 0.0026079204 0.0075761052           39 
    6000   0.65637859   -6.9118263   0.19236479  0.002671733 0.0073361257           61 
    6100   0.64011572   -6.9472139   0.20366723  0.002782339 0.0071675987           63 
    6200   0.63103833   -6.9190832   0.21348782 0.0028694598 0.0070597489           80 
    6300   0.64194971   -6.9416153   0.21583303 0.0028549341 0.0069561674           37 
    6400   0.62417528   -6.8578982   0.22652345 0.0029495239 0.0068540406           38 
    6500   0.62063116   -6.9117982   0.23922289 0.0030669599 0.0068014357           35 
    6600   0.62401429   -6.9370763   0.24736205  0.003123258  0.006777244           70 
    6700   0.62957158   -6.9046311   0.25463707 0.0031671275 0.0067663562           78 
    6800   0.65366049   -6.9306148   0.26157007 0.0032055153 0.0067479074           40 
    6900   0.61409221   -6.9387106   0.26027838 0.0031434585 0.0067056315           40 
    7000    0.6149948   -6.9864615   0.25933121 0.0030872761 0.0066092856           21 
    7100   0.64239864   -6.9047041   0.26611531  0.003123419 0.0065069546           31 
    7200    0.6123717   -6.8954245   0.27639071 0.0031989663 0.0064334396           26 
    7300   0.63304544   -6.9338861   0.28089403 0.0032065526 0.0063645504           63 
    7400   0.60613676     -6.91109   0.27873586 0.0031389171 0.0062846909           59 
    7500   0.59387072   -6.8986465   0.28556066 0.0031728961 0.0061932772           34 
    7600   0.61804575   -6.9140083   0.28572645 0.0031329653 0.0060976234           51 
    7700     0.609163   -6.9081958   0.28563805 0.0030913207 0.0060008496           29 
    7800   0.59720244   -6.9329007   0.28016429  0.002993208 0.0058782416           29 
    7900   0.62732042   -6.9532159    0.2819257 0.0029738996 0.0057435689           66 
    8000   0.65402545   -6.9099395   0.29030961 0.0030240582 0.0056260034           20 
    8100   0.63584721   -6.9118536   0.29563687 0.0030415314  0.005526824           49 
    8200   0.61382253   -6.9269476    0.2966688 0.0030149267 0.0054301039           35 
    8300   0.65013773    -6.918273   0.30106781  0.003022769 0.0053348872           33 
    8400   0.68051975   -6.9623388   0.30463183  0.003022141 0.0052478993           21 
    8500   0.64829874   -6.9295282    0.3114281 0.0030532165 0.0051710617           17 
    8600   0.59889151   -6.9365063   0.31976796 0.0030985266 0.0051050425           15 
    8700   0.63195677   -6.9727114   0.32998222 0.0031607491 0.0050540378           11 
    8800   0.62665602   -6.8892921   0.33224771  0.003146285 0.0050094432            9 
    8900   0.63254183   -6.9419587   0.33780438 0.0031629622 0.0049646949           11 
    9000   0.60982109   -6.9523666   0.33412102  0.003093713 0.0049203959            6 
    9100   0.63591876   -6.9519591   0.33222336 0.0030423383 0.0048583358           12 
    9200   0.63597318   -6.9839829   0.33293387 0.0030157052 0.0047937265            7 
    9300   0.61934833   -6.9702632   0.33334837 0.0029869924 0.0047268376            8 
    9400   0.62016557   -6.9172943   0.32768297 0.0029049907 0.0046530764           12 
    9500   0.64219499    -6.942756   0.33464215 0.0029354573 0.0045788461           17 
    9600   0.62874913   -6.8986624   0.33926185 0.0029449811 0.0045143533           14 
    9700   0.64673516   -6.9664029   0.33663894  0.002892087 0.0044488913           11 
    9800   0.63844986   -6.9226421   0.34366873  0.002922353 0.0043859695            9 
    9900   0.64454148   -6.9492229   0.35289362 0.0029704849 0.0043329062           16 
   10000   0.59946365   -6.9265373   0.35748553 0.0029790459 0.0042860829           23 
   10100   0.61362566   -6.9235088    0.3575468 0.0029500559 0.0042404273            5 
   10200   0.62945951    -6.927082   0.35800285 0.0029248597 0.0041920021            9 
   10300    0.6183164   -6.9507736   0.36401136 0.0029450756 0.0041475847           17 
   10400   0.64425049   -6.9531229   0.36638614 0.0029357862 0.0041069944           41 
   10500   0.63776233   -6.9469238   0.37277953 0.0029585675 0.0040683602           31 
   10600   0.62862847   -6.9958943   0.37786544 0.0029706402 0.0040333899           31 
   10700   0.62944169   -6.9180767   0.37728014 0.0029383187 0.0039995797           17 
   10800   0.63809266   -6.9579432     0.381431 0.0029431403 0.0039663711           16 
   10900   0.59730235   -6.9646264   0.38032004 0.0029076455 0.0039312519           32 
   11000   0.62685986    -6.938446   0.38321805 0.0029031669 0.0038954591           25 
   11100   0.63009519   -6.9479983   0.39090033  0.002934687 0.0038649905           19 
   11200   0.60810123   -7.0091948   0.39140542 0.0029122425 0.0038323133           36 
   11300   0.62170679   -6.9813518   0.40306773 0.0029724757 0.0038067713           46 
   11400   0.64912814   -6.9163809   0.40332657 0.0029482935 0.0037858694           19 
   11500   0.61881355   -6.9736284   0.39625028 0.0028713787 0.0037574096           11 
   11600   0.62469413   -6.9849941   0.40654968 0.0029206154  0.003727186           18 
   11700   0.62123222   -6.9213973   0.40812514 0.0029068741 0.0037034258           13 
   11800   0.65038828   -6.9519338   0.41230705 0.0029117728 0.0036795923           28 
   11900   0.62315857   -6.9965965   0.41474873 0.0029044027 0.0036550538           16 
   12000   0.64981218   -6.9782467   0.41596637 0.0028886552 0.0036309881           17 
   12100    0.6433869   -6.9571777   0.41787059 0.0028778965 0.0036059482           16 
   12200    0.6093732   -6.9932914   0.42822217 0.0029250147  0.003584971           47 
   12300   0.64041866   -6.9839923   0.42497651 0.0028792445 0.0035637778           34 
   12400   0.65105213   -6.9727319   0.42545683 0.0028592528 0.0035413336           13 
   12500   0.66053727   -6.9882037    0.4257411 0.0028382739  0.003517353           17 
   12600   0.57791133   -6.9595865   0.42815408 0.0028317068 0.0034923299           17 
   12700   0.63112956   -6.9856738   0.43055819 0.0028251849 0.0034683702            9 
   12800   0.64399979   -6.9496923   0.42971557 0.0027976273 0.0034438006            8 
   12900   0.65955824   -6.9752505   0.43436776 0.0028059932 0.0034207166           28 
   13000   0.61376264    -6.964426   0.42956016 0.0027535907 0.0033961185           37 
   13100   0.65474379   -6.9454223   0.42978527 0.0027340029 0.0033688654           41 
   13200   0.64578044    -6.953026   0.44039861 0.0027802942 0.0033446438           44 
   13300   0.61355152   -6.9678126   0.44863239 0.0028109798 0.0033248617           37 
   13400   0.64633719   -6.9405306   0.46283004 0.0028782962 0.0033104866           39 
   13500   0.62272981   -6.9396739   0.47651656 0.0029414602 0.0033019947           23 
   13600   0.60822512   -6.9801502   0.48383034 0.0029646466 0.0032987012           38 
   13700   0.60276547   -6.9500046   0.47992941 0.0029192785 0.0032937393           32 
   13800   0.61452823   -6.9516936   0.48267655 0.0029147134 0.0032849425           33 
   13900   0.63388484    -6.974549   0.48204463 0.0028899557 0.0032774338           26 
   14000   0.62356342    -6.958014   0.48057676 0.0028605759 0.0032666923           26 
   14100   0.65446568   -6.9626257   0.47362095 0.0027991781 0.0032527815           33 
   14200   0.60913123   -6.9726043   0.45829319 0.0026895139  0.003230893           25 
   14300   0.63785867   -6.9610743   0.45574122 0.0026558345 0.0032071478           25 
   14400   0.60527583   -7.0334429   0.45592921 0.0026384791 0.0031822405           28 
   14500   0.63221287    -7.027109   0.45841419 0.0026345642 0.0031561325           17 
   14600   0.62371825   -6.9499404   0.46983435 0.0026817028 0.0031336759           33 
   14700   0.64360231   -7.0064102   0.47795335  0.002709486 0.0031149065           23 
   14800    0.6185651   -6.9415316   0.47708042 0.0026862636  0.003096838           16 
   14900   0.66345773   -6.9376826    0.4827387 0.0026998808 0.0030804723           30 
   15000   0.63064649   -7.0274417   0.48463365 0.0026924091 0.0030640151           37 
   15100   0.61293458   -6.9637768   0.48249679 0.0026627857 0.0030457532           33 
   15200   0.64369856   -6.9768019   0.49258252  0.002700562 0.0030300948           15 
   15300   0.63181583   -6.9729405   0.50499366   0.00275051 0.0030182649           20 
   15400   0.63934973   -6.9285749   0.49820974 0.0026959401 0.0030060742           22 
   15500   0.63413163   -6.9732584   0.48648582 0.0026155151 0.0029901168           15 
   15600   0.62652932   -6.9498469   0.49649402 0.0026522116 0.0029731144           12 
   15700   0.64925611    -6.957095   0.48818449 0.0025912127 0.0029561687           11 
   15800   0.61481012   -6.9816045   0.48991002 0.0025839135 0.0029366662           11 
   15900   0.59486237   -6.9653898    0.4936032 0.0025870188 0.0029188994           10 
   16000   0.62202364   -6.9381142   0.49285831 0.0025669703 0.0029011816           19 
   16100   0.64517779   -6.9234475   0.48773282 0.0025244969 0.0028816738           24 
   16200   0.62288688    -6.991872   0.48311027 0.0024851351 0.0028605725           39 
   16300   0.65762696   -6.9604229    0.4839953 0.0024744135 0.0028393884           19 
   16400   0.63894254   -6.9758651   0.48626296 0.0024708483 0.0028178658           16 
   16500   0.63914895   -7.0131214   0.48427634   0.00244584 0.0027968469           14 
   16600   0.61659855   -6.9566069    0.4882656 0.0024511324 0.0027756496            8 
   16700   0.65401561   -6.9547252   0.48617591 0.0024260274 0.0027544866           12 
   16800   0.63183511   -6.9745125   0.50024167 0.0024813574 0.0027360729           10 
   16900   0.62676164   -6.9656647   0.50458382 0.0024880858 0.0027200151            6 
   17000   0.62745416   -6.9370564   0.49762667 0.0024393464  0.002702699            4 
   17100   0.62698074   -6.9679851   0.49061665 0.0023909193 0.0026831746           12 
   17200   0.61689823   -6.9719036   0.49310719 0.0023890852 0.0026633572            9 
   17300   0.65565647   -7.0015645   0.49368817  0.002378074 0.0026436721           13 
   17400   0.61211832    -6.963908   0.48693261 0.0023320527 0.0026235079           12 
   17500   0.58520307   -6.9697401   0.49455287 0.0023550136 0.0026028766           27 
   17600   0.63025894   -7.0021273   0.49987845 0.0023668487 0.0025843223           24 
   17700    0.6314318   -6.9414559    0.5187492  0.002442322 0.0025696406           14 
   17800   0.64221316   -6.9526298    0.5208043 0.0024382223 0.0025572066            9 
   17900    0.6273894   -6.9575448   0.51481478 0.0023967168 0.0025440497           33 
   18000    0.6100314    -6.974063   0.51152404 0.0023681668 0.0025286467           23 
   18100   0.64789456   -6.9461134   0.51142196  0.002354613 0.0025134447           17 
   18200   0.65554358   -6.9213605   0.52269371 0.0023932862 0.0025000808           25 
   18300   0.62062211   -6.9683029    0.5179169 0.0023584558 0.0024864195           16 
   18400   0.62612714   -6.9729703   0.51125689  0.002315475 0.0024713723           28 
   18500   0.61809438   -6.9251143   0.50951898 0.0022951305 0.0024552859           37 
   18600   0.62612526   -6.9966746   0.50419859 0.0022589542  0.002438334           19 
   18700   0.61216172   -6.9941394   0.51339847 0.0022878719 0.0024216402           33 
   18800   0.67140901   -6.9783809    0.5113013 0.0022664064 0.0024061407           40 
   18900   0.62448246   -6.9843649   0.51580163 0.0022742576 0.0023911497           59 
   19000   0.64571794   -7.0048168   0.52496321 0.0023024702 0.0023775804           18 
   19100   0.60795105   -6.9732065   0.53081663 0.0023159538 0.0023650352           14 
   19200   0.61988236   -7.0293852   0.53756854 0.0023331967 0.0023536585           30 
   19300   0.64380053    -7.002125   0.55168788  0.002382072 0.0023451842           29 
   19400   0.64864542   -6.9682711   0.54636748 0.0023469393 0.0023368478           10 
   19500   0.62980885   -7.0103517   0.54526801 0.0023302051 0.0023273764           11 
   19600   0.63612601   -7.0106262   0.54390948 0.0023125402 0.0023176905           11 
   19700   0.63866608   -6.9724337   0.54331373 0.0022982814 0.0023075386           22 
   19800   0.63253196   -7.0094456   0.53930048 0.0022697831 0.0022968358            9 
   19900   0.61533458   -6.9695454    0.5445474 0.0022803492 0.0022853393           14 
   20000   0.66287546   -6.9852514   0.53857703 0.0022440709 0.0022745442           17 
   20100   0.62710042   -6.9741053   0.54446982 0.0022573375 0.0022631028           28 
   20200   0.62907722   -6.9660017   0.55256313 0.0022795508 0.0022533941           21 
   20300   0.66853432   -7.0054841   0.54613313 0.0022419258 0.0022432461           15 
   20400   0.62825915   -6.9833243   0.55312229 0.0022594864 0.0022334955           17 
   20500   0.65671213   -6.9943943   0.55417364 0.0022527383 0.0022238424           41 
   20600   0.62315774   -6.9836252   0.56241674 0.0022751486 0.0022155552           23 
   20700   0.62847693   -6.9928697   0.55665183 0.0022409493 0.0022067872           25 
   20800   0.61632701   -6.9756728   0.56016584 0.0022442541  0.002197799           27 
   20900   0.63098954   -7.0553931   0.56743647 0.0022625058 0.0021894617           17 
   21000   0.64187646   -6.9771334   0.57040817 0.0022635244  0.002182212           34 
   21100    0.6199607   -7.0195283   0.58094354 0.0022944057 0.0021755281           24 
   21200      0.64554   -7.0111153   0.58009613  0.002280252 0.0021695578           20 
   21300   0.64841402   -6.9787837   0.57011863  0.002230511 0.0021624299           19 
   21400   0.63244684   -6.9911172   0.57382411 0.0022345175 0.0021546647           21 
   21500   0.65072958   -6.9808593   0.57733007 0.0022377134 0.0021472736           28 
   21600   0.66985339   -6.9524496   0.59040409 0.0022777935 0.0021414814           25 
   21700   0.63183805   -6.9523046   0.58420157 0.0022434776 0.0021352733           24 
   21800   0.62400277   -6.9735668   0.59075426 0.0022582349 0.0021293355           18 
   21900   0.63119888   -6.9845042   0.59054269 0.0022471182  0.002123622           19 
   22000   0.62681353    -6.953139   0.59129747 0.0022397631 0.0021176661           18 
   22100   0.66012636   -6.9571726   0.59640146 0.0022488742 0.0021119131           11 
   22200   0.60131722   -6.9486883   0.58203744 0.0021848252 0.0021055529           25 
   22300   0.62509904   -6.9734248   0.58172923  0.002173876 0.0020974499           22 
   22400   0.64236189   -6.9381025   0.59167606 0.0022011758  0.002090066           19 
   22500   0.63691628   -6.9461766   0.59132638 0.0021900976 0.0020832917           13 
   22600   0.61347014   -6.9592171   0.59231771 0.0021840623  0.002076536           33 
   22700   0.66378644   -7.0239842   0.59387318 0.0021801511 0.0020697475           25 
   22800   0.64926231   -6.9553552   0.59304178 0.0021675503 0.0020628863           20 
   22900   0.62142167   -6.9829419   0.59768935 0.0021749976 0.0020563372           32 
   23000   0.61674394   -6.9697187   0.59949443 0.0021720812 0.0020502899           22 
   23100   0.63740838   -6.9925214   0.60157398 0.0021701803 0.0020440756           55 
   23200   0.60341942   -6.9760948   0.60762623 0.0021825654 0.0020382139           35 
   23300   0.64217484    -6.973434   0.61111782  0.002185686 0.0020330656           26 
   23400   0.61403397   -6.9247176   0.60262427 0.0021460978 0.0020273065           21 
   23500   0.61766432   -7.0054519   0.61521936 0.0021816289 0.0020221214           23 
   23600   0.61912427   -7.0230425   0.61236414 0.0021623027 0.0020166674           25 
   23700   0.61921209   -6.9628663   0.60217295 0.0021173451 0.0020100238           22 
   23800   0.64082249   -6.9665426   0.60431086 0.0021159344 0.0020033713           20 
   23900   0.65466647   -7.0072755   0.59646407 0.0020797212  0.001995894           13 
   24000   0.61964152   -6.9969769   0.60599568 0.0021041516 0.0019887696           20 
   24100   0.64816031   -6.9907014   0.62099735 0.0021472937 0.0019829226           27 
   24200    0.6375837    -6.980525   0.63001668 0.0021694789 0.0019787642           43 
   24300   0.62774948   -6.9784349   0.61819359 0.0021200054 0.0019741006           41 
   24400   0.61840442   -7.0035958   0.62023308 0.0021182823 0.0019686461           68 
   24500   0.61634285   -7.0412814   0.62342224 0.0021204838 0.0019634208           36 
   24600    0.6112684   -6.8967226   0.61415064  0.002080456 0.0019573429           27 
   24700   0.65199593   -6.9566903   0.62451568 0.0021070029 0.0019517944           18 
   24800   0.60874557   -7.0211391   0.62781498 0.0021095933 0.0019464412           32 
   24900    0.6444481   -6.9872772   0.62329189 0.0020859835  0.001941075           25 
   25000   0.62494063   -6.9658078   0.62965516 0.0020988505 0.0019358868           36 
   25100   0.64092153   -7.0002281   0.64690955  0.002147774 0.0019316306           35 
   25200   0.63549831   -6.9605622   0.64722708 0.0021403011 0.0019282483           18 
   25300   0.62463421   -6.9451012   0.64603596 0.0021279181 0.0019250353           27 
   25400   0.62364238   -6.9770538   0.63347361 0.0020783255 0.0019208736           23 
   25500   0.62005215   -7.0236268   0.63098187 0.0020620322 0.0019152525           42 
   25600   0.64133783   -6.9437213   0.63305658  0.002060731  0.001909635           30 
   25700   0.63010433   -6.9684872   0.63635759 0.0020634163 0.0019043355           66 
   25800   0.65009571   -7.0017616   0.64109247 0.0020707121 0.0018995429           75 
   25900   0.60467519   -7.0147671   0.64915513 0.0020886587  0.001895226           91 
   26000   0.60262389   -6.9609583   0.65643675 0.0021039639  0.001891508           63 
   26100   0.64123034   -7.0009085   0.65864946 0.0021029676 0.0018882644           96 
   26200   0.65503141   -6.9256993   0.65668187 0.0020886827 0.0018846544           94 
   26300    0.6311114   -6.9583304    0.6530492 0.0020692306 0.0018808179           81 
   26400    0.6437724   -7.0001461   0.65344097 0.0020626293 0.0018768258           92 
   26500   0.62497838   -6.9743956   0.65222424 0.0020510196 0.0018719787          104 
   26600   0.62528092   -7.0407058   0.65958209 0.0020663599 0.0018678563          100 
   26700   0.58699196    -7.028176   0.66347435 0.0020707688 0.0018642115           92 
   26800    0.6450578   -7.0290812   0.66830617 0.0020780664 0.0018608619          101 
   26900   0.64296078   -6.9890409   0.66851264 0.0020709809 0.0018577571           74 
   27000   0.62219533   -6.9626972   0.66952688 0.0020664409 0.0018545196           99 
   27100   0.63537553   -7.0367883   0.67591981 0.0020784742 0.0018514784          111 
   27200   0.64527056   -7.0016878   0.68095307 0.0020862532 0.0018486395           99 
   27300   0.62570072   -6.9804127   0.68754883 0.0020987449 0.0018463344          100 
   27400   0.61715591   -7.0469613   0.68597366 0.0020862946 0.0018440716          100 
   27500   0.62532451    -6.975437   0.69503199 0.0021061575 0.0018416568           65 
   27600   0.65386424   -6.9603693   0.69241373 0.0020906211  0.001839647          107 
   27700   0.63211358   -6.9912075   0.70163655 0.0021108199 0.0018379336          101 
   27800   0.63362245   -6.9857494   0.71068184 0.0021303412 0.0018367026           81 
   27900   0.64174115    -6.947404   0.73077382 0.0021827175 0.0018369982           31 
   28000   0.62305814   -6.9599684   0.72856119 0.0021683368 0.0018379165           46 
   28100   0.64092662   -7.0340253    0.7235633 0.0021457986 0.0018377741           71 
   28200   0.63187101   -6.9888269   0.71251564 0.0021055426 0.0018370228          121 
   28300   0.63468643   -6.9383062   0.69843659 0.0020566448 0.0018346732          103 
   28400   0.60743427   -6.9630311   0.71243721 0.0020904847  0.001832501          100 
   28500   0.65530747   -6.9763014   0.71338081 0.0020859088 0.0018305392          117 
   28600   0.62563687   -6.9824011   0.71472283 0.0020825257 0.0018290794           95 
   28700   0.64044375   -7.0251639   0.71750069 0.0020833353 0.0018276081          125 
   28800   0.64831657   -7.0080803   0.71390863 0.0020657078 0.0018256664          126 
   28900   0.61074137   -7.0038534   0.71335224 0.0020569557 0.0018233307          143 
   29000   0.67927475   -6.9925278   0.71592434 0.0020572538 0.0018211834           77 
   29100   0.65077548   -7.0107256   0.72028285 0.0020626656 0.0018192906          115 
   29200   0.61052134   -7.0108389   0.73204992 0.0020891835 0.0018177106          149 
   29300   0.61439449   -7.0137033   0.72861296  0.002072278 0.0018164018          150 
   29400   0.62815336   -6.9910229   0.71564824 0.0020284814 0.0018142458          176 
   29500   0.61998239   -6.9849865   0.72065824 0.0020357577 0.0018114474          161 
   29600   0.63174555   -6.9841552   0.72791142 0.0020493001 0.0018095445          120 
   29700   0.62221738   -7.0048111   0.72785297 0.0020422361 0.0018074365          148 
   29800   0.62309141   -6.9821757   0.73805061 0.0020638999 0.0018056363          174 
   29900   0.65863339   -6.9632793   0.73904849 0.0020597784 0.0018042348          146 
   30000    0.6234226   -6.9739784   0.74597665 0.0020721573  0.001802761          160 
   30100   0.59778221   -7.0162461   0.76196851 0.0021095473 0.0018021088          190 
   30200   0.63206169   -6.9708769   0.76442775 0.0021093481 0.0018020617          190 
   30300   0.61520463   -6.9617904   0.76887321 0.0021146128 0.0018020205          183 
   30400   0.58986575   -7.0118031   0.77783531 0.0021322239   0.00180239          164 
   30500    0.6134479   -6.9790794   0.77232094 0.0021101665 0.0018024577          173 
   30600   0.65854198   -6.9868841   0.76936297  0.002095215 0.0018022974          207 
   30700   0.63558151   -7.0129684   0.76608924 0.0020795039  0.001801715          186 
   30800   0.66382735   -7.0130084    0.7724672 0.0020900086 0.0018010985          201 
   30900   0.65352444   -7.0239599   0.78309461 0.0021119056 0.0018012933          138 
   31000   0.66955631   -6.9697172   0.77367084 0.0020797603 0.0018011185          158 
   31100   0.63345215   -7.0037109   0.76845028 0.0020590843  0.001800114          159 
   31200   0.66680753   -7.0409714   0.77043673 0.0020577904 0.0017991461          150 
   31300   0.61427668   -7.0166516    0.7733229 0.0020589001 0.0017980765          117 
   31400   0.61102147   -6.9864979   0.76649743 0.0020342288    0.0017968          172 
   31500   0.64550108   -6.9584228   0.76620691 0.0020270024 0.0017952143          193 
   31600   0.63882297   -7.0196808   0.77011701 0.0020308992 0.0017937004           76 
   31700   0.61666972   -6.9747964   0.76861077  0.002020533   0.00179214          129 
   31800   0.64363306   -6.9458895   0.76628929 0.0020080956 0.0017902344           88 
   31900   0.62665483    -6.997926   0.77298339 0.0020192878 0.0017884765          130 
   32000    0.6015033   -6.9874421   0.77307134 0.0020132066 0.0017866395          124 
   32100   0.63365038   -6.9924178   0.78002317 0.0020249822 0.0017849433          118 
   32200   0.63980668   -6.9506872   0.77880309 0.0020155359 0.0017834067           87 
   32300   0.62509528   -6.9941902   0.78284768 0.0020197308 0.0017819016          160 
   32400   0.63981544   -6.9790842   0.77912356 0.0020039186 0.0017803083          191 
   32500   0.63060309   -7.0704634   0.78407399 0.0020104461 0.0017786189          220 
   32600   0.61976645   -7.0001545   0.78728265 0.0020124812 0.0017769749          226 
   32700   0.62591299   -6.9827025   0.80085798 0.0020409224 0.0017756932          230 
   32800   0.59878474   -6.9901378   0.82442683 0.0020945803 0.0017756432          217 
   32900   0.62453887   -6.9916605   0.83716663 0.0021204828 0.0017767885          230 
   33000   0.61031138   -6.9810162    0.8335471 0.0021049169 0.0017774728          208 
   33100   0.67337442   -6.9558878   0.84061144  0.002116343 0.0017784932          220 
   33200   0.62380117   -6.9438275   0.84045236 0.0021095691 0.0017795973          196 
   33300   0.61323498   -7.0118439   0.84845297 0.0021232556 0.0017806789          191 
   33400   0.63940695   -6.9690144   0.84054451 0.0020971669 0.0017815458          230 
   33500   0.61501969   -6.9771913   0.81909487 0.0020375494 0.0017814143          206 
   33600   0.62634869   -7.0375743   0.83451483 0.0020697292 0.0017811386          174 
   33700   0.62547343   -6.9864516   0.84048124 0.0020783413 0.0017811495          228 
   33800   0.61544006   -7.0206945   0.84847006 0.0020918887 0.0017818156          240 
   33900   0.62819284   -6.9821021   0.84751082 0.0020833599 0.0017822342          229 
   34000   0.63273417   -6.9969607   0.85291332 0.0020904738 0.0017825705          216 
   34100   0.62375664   -7.0275298   0.84267787 0.0020593301 0.0017828109          240 
   34200   0.64774872   -6.9976847   0.83571046 0.0020363315 0.0017825154          219 
   34300   0.66927384   -7.0049781   0.84822087 0.0020607893 0.0017824133          235 
   34400   0.62787191    -7.007449   0.85939148 0.0020818592 0.0017827555          223 
   34500   0.61796243   -7.0278229   0.86195406 0.0020820146 0.0017832996          223 
   34600   0.62452904   -6.9997677    0.8725758 0.0021015795 0.0017838848          248 
   34700   0.62975175   -6.9939052   0.87389683 0.0020986955 0.0017848643          222 
   34800    0.6424779   -7.0294671    0.8664366 0.0020748003 0.0017852132          208 
   34900   0.60244929   -7.0052008   0.85860817 0.0020501628  0.001785231          201 
   35000   0.63312353   -7.0098662   0.86531124 0.0020602648 0.0017850793          202 
   35100   0.62801137   -7.0291493   0.85457604 0.0020289079 0.0017848267          177 
   35200   0.60057384   -7.0188454   0.85294281 0.0020192775 0.0017839405          205 
   35300   0.62365049   -7.0111818   0.84562409 0.0019962797 0.0017828858          239 
   35400   0.66150172   -7.0464178   0.85956788 0.0020234648 0.0017819942          248 
   35500   0.62283081   -7.0196901   0.87024591 0.0020428307 0.0017815594          231 
   35600   0.64292806   -7.0079102    0.8683117 0.0020325648 0.0017812981          255 
   35700    0.6190202   -7.0527604   0.87596859 0.0020447446 0.0017811732          260 
   35800   0.64100697   -7.0729261   0.87548916  0.002037917 0.0017809129          250 
   35900   0.63644171   -6.9948916   0.88256567 0.0020486668  0.001780927          269 
   36000   0.67177462   -6.9733182   0.89141728 0.0020634659  0.001781167          204 
   36100   0.64711876   -7.0497299   0.89237212 0.0020599541  0.001781517          200 
   36200   0.61874532   -7.0084049   0.89007216  0.002048969 0.0017815901          220 
   36300   0.62789459     -6.98211   0.89161098 0.0020468571 0.0017815788          236 
   36400   0.63147861   -7.0212494   0.89438619 0.0020475874 0.0017816216          262 
   36500   0.61659146   -7.0166052   0.89945276 0.0020535451 0.0017817763          249 
   36600   0.59975703   -7.0177848   0.91599088 0.0020855894 0.0017823092          251 
   36700   0.61143609   -6.9838318   0.90918011 0.0020644416 0.0017827188          240 
   36800   0.63641378   -7.0071893   0.91149726 0.0020640789 0.0017832182          252 
   36900   0.61902384   -7.0240812    0.9031147 0.0020395544 0.0017834152          261 
   37000   0.65693304   -7.0361547   0.89681892 0.0020198624 0.0017830286          243 
   37100   0.67128458   -6.9478642   0.90169126 0.0020253622 0.0017826538          241 
   37200   0.65874163   -7.0273086   0.90612118 0.0020298413 0.0017824267          266 
   37300   0.62223263   -7.0170115   0.91399875  0.002041999  0.001782263          241 
   37400   0.64001707   -6.9911355   0.90568737   0.00201802 0.0017821048          245 
   37500   0.62758843    -7.015896   0.90979303 0.0020217623 0.0017817361          234 
   37600   0.62014406   -7.0160232   0.91132672 0.0020197844 0.0017814597          264 
   37700   0.65380765   -7.0352612   0.91065194 0.0020129353 0.0017809284          269 
   37800   0.63470356   -7.0094671   0.91927255 0.0020266149 0.0017806293          290 
   37900   0.63087498   -7.0369086   0.91044845 0.0020018655  0.001780239          305 
   38000   0.62035097   -7.0098696   0.91247708 0.0020010462 0.0017795578          308 
   38100   0.60683015   -7.0351185   0.91254231 0.0019959368 0.0017788104          281 
   38200   0.65168105   -7.0468639   0.90993765 0.0019850297  0.001777982          263 
   38300   0.67065959   -7.0085706    0.9162222 0.0019935209   0.00177716          235 
   38400   0.63036002   -7.0638465   0.91395582  0.001983411 0.0017766274          231 
   38500   0.61943479   -7.0303386   0.90994027 0.0019695677 0.0017754581          247 
   38600   0.65383881   -7.0346086    0.9207918 0.0019878925 0.0017744581          246 
   38700   0.61442978   -6.9872965   0.92686198 0.0019958268 0.0017737675          209 
   38800   0.61298488   -7.0545778   0.92633245 0.0019895456 0.0017732133          212 
   38900   0.63875226   -7.0550864   0.91985364 0.0019705519 0.0017723693          258 
   39000   0.66490173   -7.0383132   0.91801559 0.0019615717 0.0017712343          294 
   39100   0.60590829   -7.0494306   0.91807516 0.0019566819 0.0017701735          290 
   39200   0.61959712   -7.0493231   0.92831108 0.0019734504 0.0017690152          303 
   39300    0.6380676   -7.0558217   0.92254049 0.0019561927 0.0017679557          283 
   39400   0.64260062   -7.0009156   0.93448168 0.0019764841 0.0017669676          285 
   39500   0.61829466   -7.0100201   0.93564634 0.0019739374 0.0017662217          277 
   39600   0.62896444   -7.0406039   0.92302976 0.0019424027 0.0017651235          299 
   39700   0.61098561   -7.0568918   0.91032198 0.0019108354 0.0017634962          300 
   39800   0.64152339   -7.0259001   0.91560562 0.0019170972 0.0017616666          293 
   39900   0.64627423   -7.0093143   0.91296093 0.0019067688 0.0017598235          308 
   40000   0.61919685   -7.0551658   0.91146291  0.001898881 0.0017579679          335 
   40100   0.57744683   -7.0274197   0.91478816  0.001901056 0.0017558313          306 
   40200   0.64136201   -7.0599936   0.92376909 0.0019149442 0.0017540503          290 
   40300   0.64652548   -7.0273451   0.92166105 0.0019058334 0.0017522412          299 
   40400   0.61004713    -7.006165   0.94045001 0.0019398721  0.001750811          289 
   40500   0.60071643   -7.0521452   0.93856209 0.0019311977 0.0017496211          308 
   40600   0.63471548   -7.0365462   0.94170299 0.0019328879 0.0017483341          319 
   40700   0.61878432   -7.0410711   0.94486627 0.0019346156 0.0017472726          359 
   40800   0.60978758   -7.0520528   0.94876489 0.0019378368 0.0017461269          392 
   40900   0.63937777   -7.0139246   0.95478116 0.0019453569  0.001745167          386 
   41000   0.63362388   -7.0941974    0.9795515 0.0019909583 0.0017447411          363 
   41100   0.63529051   -7.0484652   0.98233742 0.0019917628 0.0017447655          372 
   41200   0.65514453   -7.0376087   0.97673778 0.0019756023 0.0017446778          391 
   41300   0.63254711   -7.0856063   0.97097257  0.001959186  0.001744287          354 
   41400    0.6090651   -7.0292329   0.95456624 0.0019214296 0.0017433939          366 
   41500   0.64850703   -7.0719312   0.97051192 0.0019488191 0.0017424578          355 
   41600   0.63828474   -7.0744501   0.96842305   0.00193995 0.0017417404          354 
   41700   0.62288153   -7.0892593   0.96782157 0.0019340958 0.0017408576          365 
   41800   0.65578687   -7.0873722   0.97587839 0.0019455311 0.0017399602          384 
   41900   0.63176903   -7.0796804   0.98138963 0.0019518489 0.0017393422          385 
   42000   0.63697666   -7.0891368   0.99535967 0.0019749199 0.0017390402          363 
   42100    0.6575215    -7.082705    1.0000951 0.0019796023 0.0017389719          395 
   42200   0.58315936   -7.0581475    1.0127733 0.0019999473 0.0017390093          388 
   42300   0.62955075   -7.0857705    1.0192101 0.0020079001 0.0017392575          414 
   42400   0.61330581   -7.0667446     1.014418 0.0019937461 0.0017395771          421 
   42500   0.64989565   -7.1130937    1.0014898 0.0019637054 0.0017395311          445 
   42600   0.62307518   -7.1072068    1.0068626  0.001969606 0.0017392144          470 
   42700   0.63057869   -7.1156685     1.018418 0.0019875448   0.00173913          497 
   42800   0.64745654   -7.0635371     1.019242 0.0019845055 0.0017392519          485 
   42900    0.6331666   -7.1448367    1.0120017 0.0019658152 0.0017392926          491 
   43000   0.61004533   -7.1114018    1.0143047 0.0019657068  0.001738974          486 
   43100   0.61614002   -7.0598635    1.0176938 0.0019676988 0.0017387634          486 
   43200   0.65137411   -7.0938925     1.013912 0.0019558487 0.0017385428          497 
   43300   0.61663877   -7.1057153    1.0067791  0.001937604 0.0017380659          494 
   43400   0.61784646   -7.0995241    1.0189418 0.0019564934 0.0017375493          498 
   43500   0.63334268    -7.048941      1.02088 0.0019557088 0.0017372299          480 
   43600   0.64937042   -7.1315966    1.0221733 0.0019536952 0.0017370429          511 
   43700   0.62339229   -7.1468397    1.0164213 0.0019382557 0.0017364545          515 
   43800   0.62096499   -7.1115368    1.0303773 0.0019603831 0.0017360604          529 
   43900   0.64138958   -7.0285981    1.0297267 0.0019546824 0.0017358511          487 
   44000    0.6422298   -7.1320082    1.0360665 0.0019622471 0.0017357876          497 
   44100   0.60739026   -7.1339608    1.0379111 0.0019612831 0.0017355579          501 
   44200   0.62648325   -7.0950567    1.0492313 0.0019781887 0.0017354699          479 
   44300   0.64499499    -7.053411    1.0540965 0.0019828753 0.0017357605          489 
   44400   0.61909706   -7.1280374    1.0582312 0.0019861696 0.0017360335          520 
   44500   0.64278156   -7.1493689    1.0439296 0.0019549243 0.0017360535          525 
   44600   0.62376153   -7.1245756    1.0386916 0.0019407541 0.0017356764          519 
   44700   0.63215155   -7.1368649    1.0313398 0.0019227065 0.0017350278          526 
   44800   0.60727072   -7.1266433    1.0364389 0.0019278997 0.0017343124          516 
   44900   0.60777369   -7.1143516    1.0294196 0.0019105782 0.0017335749          517 
   45000   0.63862503   -7.1071292      1.04846 0.0019415925 0.0017329258          524 
   45100   0.62925266   -7.1411932     1.050715 0.0019414541  0.001732663          530 
   45200   0.61476498   -7.1317935    1.0467773 0.0019298992  0.001732169          530 
   45300   0.59826982     -7.10715     1.044338 0.0019211515 0.0017315546          535 
   45400   0.66093467   -7.1154337    1.0589955 0.0019438242 0.0017310589          554 
   45500   0.64422663   -7.1247966    1.0521656 0.0019270432 0.0017307177          586 
   45600   0.61917537   -7.1617711    1.0676369 0.0019510908 0.0017303782          585 
   45700   0.64000969   -7.1852961    1.0768749 0.0019636668  0.001730359          616 
   45800   0.63663621   -7.1233208    1.0879543 0.0019795384 0.0017304418          633 
   45900   0.63969853   -7.1690106    1.1065867 0.0020090535 0.0017310795          633 
   46000   0.62961428   -7.2017669    1.1101072 0.0020110637 0.0017319374          634 
   46100   0.59598809   -7.1751287    1.1058407  0.001998989 0.0017326186          636 
   46200   0.63549262   -7.1758906    1.1174049 0.0020155212 0.0017334354          635 
   46300   0.65429034   -7.1849727    1.1106565 0.0019990217 0.0017341417          650 
   46400   0.62752116   -7.1517745    1.1035757 0.0019819965 0.0017346847          631 
   46500     0.611215   -7.2074841    1.1068356 0.0019835764  0.001734955          676 
   46600   0.62070571   -7.2366604    1.1221913 0.0020067798 0.0017355391          677 
   46700   0.64645443   -7.1891388    1.1246802 0.0020069239 0.0017362784          669 
   46800    0.6636143   -7.2482411    1.1215057  0.001996983 0.0017370697          675 
   46900   0.61725996    -7.252521    1.1375431 0.0020212209 0.0017378582          671 
   47000   0.64226514   -7.2376468    1.1573741 0.0020520817 0.0017391233          659 
   47100   0.63194542   -7.2169858    1.1658082 0.0020626473 0.0017406768          675 
   47200   0.63836028   -7.2689542    1.1665888 0.0020596553 0.0017422319          702 
   47300   0.62180355   -7.2705462    1.1690379 0.0020596158 0.0017437645          692 
   47400   0.63803017   -7.2341844    1.1735707 0.0020632397 0.0017452042          718 
   47500   0.62667967   -7.2608677    1.1784433 0.0020674443 0.0017468552          714 
   47600   0.62847172   -7.2989849    1.1701972 0.0020486645  0.001748251          719 
   47700   0.60362699   -7.3086961    1.1675398  0.002039727 0.0017494629          732 
   47800   0.63995091   -7.2886385    1.1713802 0.0020421551 0.0017506058          727 
   47900   0.64549526   -7.3097543    1.1898468 0.0020700187 0.0017519908          712 
   48000   0.62990486   -7.3046814    1.1756687 0.0020410914 0.0017534581          748 
   48100   0.60366212   -7.3304418    1.1727438 0.0020317806 0.0017545743          753 
   48200    0.6158107   -7.3313799    1.1912176 0.0020595048  0.001755731          768 
   48300   0.64204733   -7.3209266    1.1961228 0.0020637039 0.0017571557          783 
   48400   0.62459598   -7.3202216    1.2113003 0.0020855721 0.0017587506          764 
   48500     0.646587   -7.3193883    1.2209541 0.0020978592 0.0017606918          793 
   48600   0.62207163   -7.3309833    1.2147698 0.0020829386 0.0017625388          794 
   48700   0.61886137   -7.3548626    1.2111662 0.0020724951 0.0017641971          804 
   48800   0.66071258   -7.4036115    1.2167414 0.0020777687 0.0017657876          819 
   48900   0.61254336   -7.3872938    1.2204101 0.0020797717 0.0017673829          833 
   49000   0.64279474   -7.3630077    1.2324685 0.0020960349 0.0017691853          843 
   49100    0.6386506   -7.4058742    1.2257495 0.0020803623 0.0017709273          831 
   49200   0.62707426   -7.4402549    1.2424113 0.0021043552 0.0017727113          837 
   49300   0.63748649   -7.3918134    1.2499064 0.0021127558 0.0017746911          840 
   49400    0.6427973   -7.3635103    1.2307647 0.0020761887 0.0017764672          841 
   49500   0.61373891   -7.4399243    1.2324283 0.0020747951 0.0017780156          846 
   49600   0.62406948   -7.4148183    1.2410856 0.0020851572 0.0017795331          837 
   49700   0.65007185    -7.359992    1.2417395 0.0020820582 0.0017811999          851 
   49800   0.60783565   -7.4081497    1.2413182 0.0020771723 0.0017827181          845 
   49900   0.61700583   -7.4396942    1.2450402 0.0020792255 0.0017842069          850 
   50000    0.6073041   -7.4244214    1.2405144  0.002067524 0.0017856508          846 
   50100   0.66133221   -7.4215198    1.2369968 0.0020575463 0.0017869281          853 
   50200   0.62945427   -7.4428986    1.2369665 0.0020533971 0.0017880938          851 
   50300   0.61087049   -7.4584286    1.2402828 0.0020548091  0.001789263          852 
   50400   0.63913705   -7.4172462    1.2271237 0.0020289744 0.0017901953          851 
   50500    0.6295349   -7.4432942    1.2336928 0.0020357967 0.0017910073          854 
   50600   0.64940325    -7.466749    1.2356734 0.0020350352 0.0017918716          856 
   50700   0.64686752   -7.4147004    1.2485106 0.0020521213 0.0017928842          853 
   50800   0.61191084   -7.4343422    1.2556016 0.0020597138 0.0017940791          854 
   50900   0.62525421   -7.4858509    1.2495757 0.0020458018 0.0017950527          857 
   51000   0.64893577    -7.396179    1.2462067 0.0020362855  0.001795928          856 
   51100    0.6544684   -7.4732996    1.2469358 0.0020334896 0.0017967981          859 
   51200   0.64129622   -7.4378893    1.2367687 0.0020129699 0.0017975497          858 
   51300   0.65351986   -7.4535734    1.2607741 0.0020480411 0.0017983016          858 
   51400    0.6397705   -7.4542601     1.267746 0.0020553599 0.0017993061          858 
   51500   0.61588897   -7.4573295    1.2649347 0.0020468199 0.0018002502          862 
   51600   0.63598069   -7.4398095    1.2589307 0.0020331567 0.0018011027          858 
   51700   0.64266467   -7.3908511    1.2677728 0.0020434764 0.0018019553          854 
   51800    0.6082535   -7.4515933    1.2642908 0.0020339299 0.0018027472          854 
   51900   0.61787108    -7.425798    1.2435007 0.0019966293 0.0018031783          856 
   52000   0.63049937   -7.4399352    1.2497987 0.0020028825 0.0018034276          854 
   52100   0.62422171   -7.3776225    1.2533468 0.0020047134 0.0018038059          854 
   52200    0.6138602     -7.44892    1.2615596 0.0020139841 0.0018042199          855 
   52300   0.65992105   -7.4839125    1.2569591 0.0020028028 0.0018046655          850 
   52400   0.62936086   -7.4593681    1.2528531 0.0019924508 0.0018049322          855 
   52500   0.62592453   -7.4359147    1.2777532 0.0020281796 0.0018054501          851 
   52600   0.63117673   -7.4585855    1.2745544 0.0020192559 0.0018060458          852 
   52700   0.63177391   -7.4494412    1.2664089  0.002002544 0.0018065178          859 
   52800   0.61358393   -7.4263907    1.2589583 0.0019869923 0.0018067405          858 
   52900   0.64250258   -7.4410473    1.2651173 0.0019929384 0.0018069155          852 
   53000    0.6200064   -7.4441166    1.2650988 0.0019891491 0.0018071419          858 
   53100   0.61238838   -7.4821648    1.2598805 0.0019772135 0.0018071919          861 
   53200   0.62868019   -7.4817788    1.2577311 0.0019701301 0.0018071355          859 
   53300   0.65710204   -7.4593194    1.2608956 0.0019713815 0.0018070481          857 
   53400   0.64243092   -7.4545336    1.2626254 0.0019703892 0.0018069688          859 
   53500   0.65095595   -7.4540079    1.2638492 0.0019686124 0.0018069658          861 
   53600   0.65287441    -7.386705    1.2697695 0.0019741441   0.00180693          861 
   53700   0.62012051   -7.4170469    1.2670849 0.0019663018 0.0018069184          856 
   53800   0.61454307   -7.4479554    1.2567137 0.0019465825 0.0018066814          861 
   53900   0.65802431   -7.4752401    1.2547396 0.0019399189 0.0018062191          852 
   54000    0.6486821   -7.4282251    1.2644901 0.0019513736 0.0018059469          854 
   54100   0.63068837   -7.4728398    1.2665005 0.0019508634 0.0018056619          856 
   54200   0.63200275   -7.4654467    1.2638507 0.0019431898 0.0018053485          860 
   54300   0.64731133   -7.4258005    1.2631151 0.0019384823 0.0018050451          855 
   54400   0.62979633   -7.4926603    1.2780604 0.0019578131 0.0018047055          856 
   54500   0.60176733   -7.4444436    1.2670048 0.0019373162 0.0018043462          853 
   54600    0.6372992   -7.4050527    1.2717695 0.0019410401 0.0018039348          854 
   54700   0.63338179   -7.4910094     1.275776 0.0019435953 0.0018036024          854 
   54800   0.60679798   -7.4072964    1.2656922 0.0019247144 0.0018031174          854 
   54900   0.61556953   -7.4311516    1.2563648 0.0019070504 0.0018024297          859 
   55000   0.61873888   -7.4374279     1.236879 0.0018740591 0.0018014671          853 
   55100    0.6136812   -7.4578476    1.2449233 0.0018828241 0.0018003173          857 
   55200   0.61938594   -7.4501362    1.2603513 0.0019027042  0.001799399          853 
   55300   0.63147774   -7.4315937    1.2644398 0.0019054247 0.0017985573          857 
   55400   0.62722865   -7.5037047    1.2634124 0.0019004397  0.001797857          860 
   55500   0.60191927   -7.4713467    1.2649423 0.0018993127 0.0017969896          857 
   55600   0.66016383   -7.4543175    1.2823494 0.0019219866 0.0017963712          857 
   55700    0.6553564   -7.4670662    1.2760776 0.0019091526 0.0017957773          855 
   55800   0.60584462   -7.4544937    1.2748484 0.0019038954  0.001795153          856 
   55900   0.65895392   -7.4702108    1.2730926  0.001897872 0.0017944479          855 
   56000   0.65741204   -7.4365973      1.26816 0.0018871428 0.0017936041          850 
   56100   0.63124942   -7.4950956    1.2688447  0.001884796 0.0017926979          856 
   56200   0.63530848   -7.4391087    1.2559206 0.0018622785 0.0017916644          856 
   56300    0.6547459   -7.4572004    1.2591514 0.0018637528 0.0017905126          859 
   56400   0.64348533    -7.433856    1.2605744 0.0018625509 0.0017893476          852 
   56500   0.62101958    -7.447217    1.2673523 0.0018692512 0.0017882896          852 
   56600   0.63170869    -7.491994    1.2573022 0.0018511516 0.0017871078          858 
   56700   0.63127592   -7.4187698     1.259124 0.0018505643 0.0017858522          861 
   56800   0.58750945    -7.436883    1.2758569 0.0018718557  0.001784776          860 
   56900   0.60186277   -7.5219745    1.2807962 0.0018757999 0.0017837701          861 
   57000     0.617928   -7.4272725    1.2662364 0.0018512228  0.001782677          861 
   57100   0.63436545   -7.4752952    1.2667909 0.0018487899 0.0017814917          859 
   57200   0.65394882   -7.4862189    1.2665095 0.0018451478 0.0017802285          859 
   57300   0.63232226   -7.4903616    1.2632284 0.0018371559 0.0017789807          851 
   57400   0.62064299   -7.4309718    1.2834329 0.0018632881 0.0017778434          853 
   57500    0.6168899   -7.4119311    1.2813329 0.0018570042 0.0017768316          858 
   57600   0.63480405   -7.4688364     1.276505 0.0018467954 0.0017756785          859 
   57700   0.62077793   -7.4861644    1.2806188 0.0018495361 0.0017746003          862 
   57800   0.61794571   -7.4160861    1.2676605 0.0018276536 0.0017733861          858 
   57900   0.63241244   -7.4625908    1.2682427 0.0018253349 0.0017719685          854 
   58000   0.60126099   -7.4773553    1.2570193 0.0018060622 0.0017704391          855 
   58100   0.62814548   -7.4388482    1.2570621 0.0018030151 0.0017687954          853 
   58200   0.61866363   -7.4148303    1.2689066 0.0018168766 0.0017673667          859 
   58300   0.62714298   -7.4406566    1.2673136 0.0018114831 0.0017658219          858 
   58400    0.6141727   -7.4640448    1.2723299 0.0018155392 0.0017643523          856 
   58500   0.63975773   -7.4072814    1.2664821 0.0018041055 0.0017629107          860 
   58600   0.62397019   -7.4598532    1.2775804 0.0018168095 0.0017614813          858 
   58700   0.58844174    -7.458655    1.2814634 0.0018192268 0.0017600811          860 
   58800   0.63778641   -7.4322969    1.2770486 0.0018098761 0.0017586453          860 
   58900   0.64201665   -7.4642151    1.2740702 0.0018025894 0.0017572316          856 
   59000   0.61559441   -7.4505926    1.2684125 0.0017915431 0.0017556776          859 
   59100   0.62451552   -7.4839497    1.2662002 0.0017853923 0.0017540257          859 
   59200   0.66315287   -7.4533826    1.2600186 0.0017736749  0.001752305          856 
   59300   0.66335912   -7.4509984    1.2605713 0.0017714604 0.0017505271          857 
   59400   0.64268312    -7.472605    1.2653949 0.0017752453 0.0017488444          860 
   59500    0.6378701   -7.4800399     1.270143 0.0017789118 0.0017472411          862 
   59600     0.629491    -7.440661    1.2641146  0.001767498 0.0017455387          852 
   59700   0.63621745   -7.4587036    1.2635461 0.0017637438  0.001743711          861 
   59800    0.6449851   -7.4513386    1.2670059 0.0017656157 0.0017419624          858 
   59900   0.64583762   -7.4626634    1.2616385  0.001755201 0.0017402008          856 
   60000   0.65281938   -7.4531154    1.2778277 0.0017747606 0.0017385363          855 
   60100    0.6230427   -7.4582756     1.284484 0.0017810371 0.0017370302          856 
   60200   0.60146392    -7.457879    1.2662854 0.0017528867 0.0017353209          859 
   60300   0.63215191   -7.4512476    1.2642708 0.0017471957  0.001733504          859 
   60400   0.59842842   -7.4445322      1.26713 0.0017482478 0.0017316542          861 
   60500   0.64143678   -7.4270015    1.2749561 0.0017561378  0.001729856          862 
   60600   0.62645369   -7.4546226    1.2678265 0.0017434357 0.0017280745          849 
   60700   0.66653754   -7.4962715    1.2622431 0.0017328983 0.0017261982          861 
   60800   0.63785551   -7.4557892    1.2658912 0.0017350482 0.0017242569          861 
   60900   0.61345722   -7.4465706    1.2666258 0.0017332044 0.0017223873          861 
   61000   0.61669855   -7.4547959    1.2802448 0.0017489683 0.0017205283          853 
   61100   0.62924612   -7.4420603    1.2605697 0.0017192712 0.0017186767          852 
   61200   0.62529168   -7.4387035     1.258208 0.0017132462 0.0017166417          850 
   61300   0.64596379    -7.436084    1.2549324 0.0017059984 0.0017145364          854 
   61400   0.63389175   -7.4505991    1.2813603 0.0017390883 0.0017126585          859 
   61500   0.62582508   -7.4660039    1.2692397  0.001719837 0.0017107894          861 
   61600   0.64938731   -7.4750136     1.265757 0.0017123336 0.0017088191          854 
   61700   0.62367696   -7.4161072    1.2722808 0.0017183695 0.0017069346          858 
   61800   0.61316716    -7.473824    1.2766307 0.0017214545 0.0017050736          861 
   61900   0.64067971   -7.4914219    1.2649353 0.0017029286  0.001703135          855 
   62000   0.64417429   -7.4239374    1.2838593 0.0017256174 0.0017012628          858 
   62100    0.6308958   -7.4513346    1.2815691 0.0017197653 0.0016995083          857 
   62200   0.62491551   -7.4798719    1.2732959 0.0017059163 0.0016976017          855 
   62300   0.63160053   -7.4399941     1.262151 0.0016882705 0.0016955737          861 
   62400   0.65180415   -7.4505945    1.2652336 0.0016896816 0.0016935141          858 
   62500   0.61635716   -7.3952641    1.2581255 0.0016775006 0.0016913936          855 
   62600    0.6300283   -7.4867941    1.2554409 0.0016712471 0.0016891864          855 
   62700   0.65587482   -7.4301198    1.2592266 0.0016736133 0.0016869464          856 
   62800   0.61593503   -7.4488222    1.2732556 0.0016895642 0.0016849537          853 
   62900   0.61623102   -7.4777434    1.2726415 0.0016860645   0.00168294          857 
   63000   0.62380134   -7.4118593     1.268755 0.0016782473 0.0016809132          857 
   63100   0.61734451   -7.4408606    1.2625243 0.0016673591 0.0016787263          858 
   63200   0.61283932   -7.5021118    1.2625023 0.0016646919 0.0016765123          856 
   63300   0.61821092   -7.4645106    1.2635701 0.0016634678 0.0016742957          854 
   63400   0.64003127   -7.4224865    1.2778927 0.0016796697 0.0016723114          855 
   63500   0.63214709    -7.484111    1.2691825 0.0016655938 0.0016703006          856 
   63600   0.60655761   -7.4829131    1.2825828 0.0016805329 0.0016682501          861 
   63700   0.62432361   -7.4258943    1.2808668 0.0016756499 0.0016662603          858 
   63800   0.63507463   -7.4488569    1.2747501  0.001665034  0.001664293          859 
   63900   0.63191991   -7.4803259    1.2653843 0.0016502143  0.001662195          856 
   64000   0.63942809   -7.4869454    1.2746993 0.0016597647  0.001660065          862 
   64100   0.59471665   -7.4563047    1.2679623 0.0016484169 0.0016579535          860 
   64200   0.64509301   -7.4864494    1.2675887 0.0016453643 0.0016557527          859 
   64300   0.63900824   -7.4551467    1.2649815 0.0016394265 0.0016535606          859 
   64400   0.61545923   -7.4725701    1.2683379  0.001641224 0.0016513443          853 
   64500   0.62783932   -7.4412877    1.2670078  0.001636961 0.0016491531          856 
   64600    0.6527137   -7.4834259    1.2626376 0.0016287895 0.0016469375          855 
   64700   0.62676772   -7.4410223    1.2685314 0.0016338632 0.0016447581          854 
   64800   0.66441911   -7.4594259    1.2750755 0.0016397576 0.0016426456          857 
   64900   0.62591542   -7.4725144    1.2805432 0.0016442517 0.0016405611          854 
   65000   0.62929809   -7.4676208    1.2653616 0.0016222584  0.001638385          860 
   65100   0.64138157      -7.4295     1.270047 0.0016257643 0.0016362101          859 
   65200   0.66345478   -7.4337718    1.2695798 0.0016226736 0.0016340279          858 
   65300   0.63288995   -7.4630607    1.2639655 0.0016130239 0.0016317882          855 
   65400    0.6295329   -7.5159212    1.2665356 0.0016138323  0.001629469          856 
   65500   0.62834538   -7.4323929    1.2602176 0.0016033302 0.0016271428          858 
   65600    0.6671175   -7.4611914    1.2651603 0.0016071649 0.0016248654          857 
   65700   0.64768537   -7.4714606    1.2675982  0.001607811 0.0016226794          853 
   65800   0.60595131   -7.4322066    1.2561355 0.0015908504 0.0016203089          853 
   65900    0.6237017   -7.4558741    1.2589326 0.0015919734 0.0016179609          854 
   66000   0.65474667   -7.4746641    1.2695632 0.0016029839 0.0016157112          857 
   66100   0.66946489   -7.4573538    1.2718838 0.0016034843 0.0016135052          848 
   66200   0.66102109   -7.4181553    1.2703373 0.0015991154 0.0016113479          856 
   66300   0.64142272   -7.4742631    1.2676076 0.0015932725 0.0016091375          858 
   66400   0.64671706   -7.4995759    1.2609481 0.0015825152 0.0016068284          859 
   66500   0.63941994    -7.457159    1.2650485 0.0015852738 0.0016045245          856 
   66600   0.63946866   -7.3953968    1.2741836 0.0015943239 0.0016022907          854 
   66700   0.60999066   -7.4495111    1.2848878  0.001605307 0.0016001775          855 
   66800    0.6239155   -7.4635671    1.2764234 0.0015923446 0.0015981043          852 
   66900   0.66352647    -7.432456    1.2744457 0.0015875009 0.0015958496          859 
   67000   0.63738212   -7.4628493    1.2680986  0.001577237 0.0015936022          855 
   67100   0.62521852   -7.4554361      1.26682 0.0015732986 0.0015913049          855 
   67200   0.62003512   -7.4366176    1.2621681 0.0015651887  0.001588968          857 
   67300   0.61044779   -7.4821575    1.2657193 0.0015672601 0.0015866355          856 
   67400   0.63203615   -7.4459499    1.2695297  0.001569646 0.0015843055          857 
   67500   0.61963721   -7.4605494    1.2616606 0.0015576057 0.0015820293          856 
   67600   0.65655278   -7.4790757    1.2617445  0.001555405 0.0015796467          857 
   67700   0.64951363    -7.445798    1.2678112  0.001560575 0.0015773137          855 
   67800   0.62473795   -7.4328852    1.2564616 0.0015443235 0.0015749551          859 
   67900   0.64094164   -7.4796982    1.2721318 0.0015612811 0.0015726368          857 
   68000   0.65676076   -7.4341145    1.2778901 0.0015660418 0.0015704191          853 
   68100   0.63375349   -7.4443945    1.2719216 0.0015564386  0.001568194          859 
   68200   0.62293792   -7.4775028    1.2777874 0.0015613237 0.0015659832          858 
   68300   0.63686847   -7.4466107    1.2665177 0.0015452876 0.0015637294          861 
   68400   0.65338221   -7.4220091    1.2711848 0.0015487144 0.0015614802          858 
   68500   0.65320553   -7.4430532      1.26082 0.0015338442 0.0015591072          859 
   68600   0.61886193    -7.458385    1.2685655 0.0015410174 0.0015567283          861 
   68700   0.61737763   -7.4579691    1.2671565 0.0015370652 0.0015544563          862 
   68800   0.65199484    -7.477782     1.268612 0.0015365939 0.0015521565          862 
   68900   0.64479681   -7.4510809    1.2735179 0.0015402974 0.0015499468          861 
   69000   0.61213192   -7.4559451    1.2602637 0.0015220576 0.0015476072          858 
   69100   0.66379902   -7.5010602    1.2594631 0.0015188894 0.0015451947          857 
   69200   0.68269356   -7.4255989     1.275455 0.0015359526 0.0015429614          859 
   69300   0.63066015    -7.483424    1.2735083 0.0015313952 0.0015407042          860 
   69400   0.59891091   -7.4718898    1.2761388 0.0015323473 0.0015384458          860 
   69500   0.62892435   -7.4675599    1.2713195 0.0015243639  0.001536229          858 
   69600   0.66671039   -7.4493632    1.2658114 0.0015155787 0.0015339413          852 
   69700   0.66971846    -7.500804    1.2586219 0.0015048085  0.001531621          859 
   69800      0.62942   -7.4462004    1.2573539 0.0015011389 0.0015291691          863 
   69900   0.61553019    -7.458229     1.258649 0.0015005353 0.0015267313          859 
   70000   0.62788791   -7.4752664    1.2741526 0.0015168483 0.0015243975          860 
   70100    0.6418582   -7.4248696    1.2738607 0.0015143375 0.0015221686          861 
   70200   0.65924163   -7.4492383    1.2851378 0.0015255672 0.0015200072          858 
   70300   0.62261884   -7.4536095    1.2597994 0.0014933611 0.0015177447          855 
   70400   0.63094655   -7.4718197    1.2676408 0.0015005217 0.0015153602          862 
   70500    0.6336375   -7.4349366     1.264327 0.0014944763 0.0015130272          855 
   70600   0.62863032   -7.4237878    1.2708687  0.001500081 0.0015107434          853 
   70700   0.61198613   -7.4620235    1.2647866 0.0014907904 0.0015084069          859 
   70800   0.61315497   -7.4567034    1.2727199 0.0014980225 0.0015061146          860 
   70900   0.63030731   -7.4255714    1.2719837 0.0014950443  0.001503828          859 
   71000   0.62289778   -7.4230213    1.2720543 0.0014930215 0.0015015714          860 
   71100   0.59585641   -7.4669062    1.2778874 0.0014977583 0.0014993561          854 
   71200   0.58840712   -7.4225863    1.2702661 0.0014867347 0.0014971294          856 
   71300   0.62781919    -7.468194    1.2606025 0.0014733549 0.0014947465          851 
   71400   0.63459723   -7.4410314    1.2646842 0.0014760553 0.0014923676          856 
   71500   0.62609539   -7.5191104     1.275589 0.0014867005 0.0014900955          851 
   71600   0.62390929   -7.4599165    1.2733239 0.0014819877 0.0014878481          859 
   71700   0.63622696   -7.4442429    1.2684046 0.0014742033  0.001485589          854 
   71800   0.63630724   -7.4655301    1.2628295 0.0014656796 0.0014832687          858 
   71900   0.63769286   -7.4739127    1.2568436 0.0014567033 0.0014808847          855 
   72000   0.62437864     -7.49378    1.2475961  0.001443977 0.0014784251          859 
   72100   0.63171304   -7.4452282    1.2684373 0.0014660625 0.0014760012          856 
   72200   0.64554811   -7.4332366    1.2725187 0.0014687427 0.0014737441          858 
   72300   0.62355924   -7.4640686     1.269879 0.0014636687 0.0014715142          859 
   72400   0.65020964   -7.4703114    1.2584157 0.0014484527 0.0014691915          856 
   72500   0.64882494   -7.4781594    1.2686983 0.0014582738 0.0014668347          861 
   72600   0.65880725   -7.4454995    1.2891543 0.0014797455 0.0014646584          852 
   72700    0.6331371   -7.4398394    1.2899144 0.0014785814 0.0014626293          849 
   72800   0.61290744   -7.4983534    1.2767658 0.0014614993 0.0014604756          849 
   72900   0.62867919    -7.432669    1.2815371 0.0014649487 0.0014582964          851 
   73000   0.62689671   -7.4790502    1.2776987 0.0014585601  0.001456104          850 
   73100   0.61253051   -7.4256075    1.2613373 0.0014379131 0.0014537689          851 
   73200   0.60689785   -7.4273035    1.2733367 0.0014496092 0.0014514584          850 
   73300   0.62126895   -7.4590782    1.2812537 0.0014566322 0.0014492703          859 
   73400   0.62451508   -7.4581502    1.2743828 0.0014468469 0.0014470403          860 
   73500   0.62339534   -7.4752521    1.2711991 0.0014412688 0.0014448149          861 
   73600   0.63374874   -7.4599928     1.286453 0.0014565817 0.0014426205          859 
   73700   0.63681267   -7.3999654    1.2741445  0.001440688 0.0014404615          856 
   73800   0.62028119   -7.4726849    1.2953692 0.0014627024 0.0014383649          858 
   73900   0.61079597   -7.4323225    1.2883536 0.0014528119  0.001436322          859 
   74000   0.64317177   -7.4400081    1.2909314 0.0014537516 0.0014342862          855 
   74100   0.62115269   -7.4810998    1.3004038 0.0014624424 0.0014322792          856 
   74200   0.62816723   -7.4553212    1.2983646 0.0014581813 0.0014303473          860 
   74300   0.66360215   -7.3936636    1.2978558  0.001455648 0.0014283648          858 
   74400   0.63201736   -7.4567936    1.2903896 0.0014453288 0.0014263648          856 
   74500   0.59056951    -7.447442    1.2750218 0.0014261988 0.0014241696          858 
   74600   0.65037109   -7.4532869    1.2858368 0.0014363682 0.0014220268          848 
   74700   0.65264153   -7.3905147    1.2785196 0.0014262825 0.0014199254          854 
   74800   0.63770657   -7.4724419     1.273852 0.0014191755 0.0014177497          856 
   74900   0.63411433   -7.4315765    1.2668395 0.0014094787 0.0014154644          854 
   75000   0.62567557   -7.4046994    1.2878201 0.0014309112 0.0014133045          855 
   75100   0.61301333   -7.4585037    1.2758936 0.0014157719 0.0014111602          858 
   75200   0.63112122   -7.4657488    1.2715522 0.0014090783 0.0014089501          851 
   75300   0.64089552   -7.4357783    1.2965518 0.0014348736 0.0014068736          835 
   75400   0.61007873   -7.4428702    1.3036935 0.0014408638  0.001404949          840 
   75500   0.61001782   -7.4631525    1.3046439 0.0014400043 0.0014030251          846 
   75600   0.63199454    -7.447268    1.3120065 0.0014462153 0.0014011796          855 
   75700   0.65526529   -7.4872067    1.3191156 0.0014521307 0.0013993834          848 
   75800   0.60938137   -7.4681661    1.3010737 0.0014303801 0.0013975309          847 
   75900   0.62895828   -7.4800721    1.3019756 0.0014294857 0.0013956146          848 
   76000   0.61509715   -7.4302441    1.3139453 0.0014407295 0.0013936969          854 
   76100   0.64190341   -7.4434737    1.3144221 0.0014393584 0.0013919058          858 
   76200   0.63268892   -7.4612319    1.3072961 0.0014296764 0.0013900249          856 
   76300    0.6330155   -7.5080976    1.2992236  0.001418986 0.0013881416          858 
   76400   0.61121079   -7.4318369    1.3038344 0.0014221579 0.0013861854          858 
   76500   0.62571076    -7.424524    1.3000063 0.0014161289 0.0013842102          859 
   76600   0.60114063   -7.4281135    1.3016012 0.0014160152 0.0013823018          848 
   76700   0.62914548   -7.4575068    1.2902154 0.0014017985 0.0013802902          853 
   76800   0.67107821   -7.4515937     1.286762 0.0013962261 0.0013782284          852 
   76900   0.62600181   -7.4334723    1.2845816 0.0013920477   0.00137615          852 
   77000   0.64277375   -7.4649485    1.2867947 0.0013926349 0.0013740643          854 
   77100   0.64200449   -7.4274194    1.2723111 0.0013751741 0.0013719234          859 
   77200   0.60902137   -7.4589022    1.2761286 0.0013775136 0.0013697267          859 
   77300   0.60566914   -7.4494271    1.2863042 0.0013867014 0.0013676249          858 
   77400   0.63685269   -7.4443847    1.2940873 0.0013932895 0.0013655673          857 
   77500   0.59462676   -7.4627308    1.2895825 0.0013866479  0.001363555          855 
   77600   0.62137288   -7.4441388    1.2895304  0.001384805 0.0013615112          857 
   77700   0.64265627   -7.4552356    1.2882142 0.0013816111 0.0013595029          858 
   77800   0.61095672   -7.4751993    1.2896701 0.0013813947 0.0013574627          861 
   77900   0.63286024   -7.4531592    1.2815556 0.0013709409 0.0013553959          859 
   78000   0.61339746   -7.4426477    1.2802753 0.0013678155 0.0013532838          856 
[...]
   82900   0.62136273    -7.516898    1.2824432 0.0012891467 0.0012549729          857 
   83000   0.61544705   -7.4819811    1.2877914 0.0012929633 0.0012530433          861 
   83100   0.63768026   -7.4828154    1.2857547 0.0012893649 0.0012511131          859 
   83200   0.64989159   -7.4886252    1.2916671  0.001293737 0.0012491978          863 
   83300   0.65413581   -7.4466107    1.2774261 0.0012779373 0.0012472531          864 
   83400    0.6337093   -7.4533359    1.2776842 0.0012766629 0.0012452729          861 
   83500    0.5878888   -7.4942422    1.2744129 0.0012718691 0.0012432795          860 
   83600    0.6104327   -7.4540734    1.2781944 0.0012741172 0.0012412921          857 
   83700   0.64681737   -7.4586185    1.2791093 0.0012735059 0.0012393261          858 
   83800   0.63844449   -7.4595255    1.2806423 0.0012735106 0.0012374016          856 
   83900   0.61338716   -7.5096286    1.2775826 0.0012689537  0.001235387          861 
   84000   0.62409027   -7.4695933    1.2749707 0.0012648519 0.0012334024          861 
   84100   0.62541122   -7.4634309    1.2766085 0.0012649708 0.0012313903          858 
   84200   0.65988444   -7.4353043    1.2838828 0.0012706678 0.0012294367          862 
   84300   0.65275195   -7.4477655    1.2819436 0.0012672436 0.0012275585          854 
   84400   0.63452578   -7.5142197     1.282404 0.0012661967 0.0012256255          860 
   84500   0.61809657   -7.4585002    1.2705382 0.0012529963 0.0012236488          855 
   84600   0.64521539   -7.4405348       1.2772 0.0012580773 0.0012216769          856 
   84700   0.60751775   -7.4822442    1.2732687  0.001252724 0.0012196938          855 
   84800   0.61860619   -7.4903836    1.2734472 0.0012514222 0.0012176912          856 
   84900   0.64986982   -7.4423091    1.2754236 0.0012518881 0.0012157225          854 
   85000   0.62400687   -7.4584788    1.2705821 0.0012456688 0.0012137329          856 
   85100   0.63358254   -7.4813142    1.2730164 0.0012465887 0.0012117558          860 
   85200   0.62021355   -7.4553749    1.2792809 0.0012512528 0.0012098216          860 
   85300   0.64805861   -7.4455933    1.2642098 0.0012350623 0.0012078585          861 
   85400   0.61377037    -7.457558    1.2796801  0.001248712 0.0012058711          858 
   85500   0.61943041   -7.4918794    1.2810097 0.0012485474 0.0012039821          860 
   85600   0.62868349   -7.4969845    1.2791088 0.0012452383 0.0012020551          857 
   85700   0.62400219    -7.429941    1.2824733 0.0012470569  0.001200145          858 
   85800   0.61725193   -7.4389831    1.2828083 0.0012459288 0.0011982779          860 
   85900   0.64498837   -7.4998093    1.2808765 0.0012426043  0.001196376          861 
   86000   0.63533867   -7.4512221    1.2806732 0.0012409624 0.0011945199          859 
   86100   0.60125847   -7.4876939    1.2777884  0.001236729 0.0011926326          860 
   86200    0.6275769    -7.449475     1.273471 0.0012311205 0.0011906748          861 
   86300   0.63436708   -7.4446017    1.2655934 0.0012220871 0.0011887242          859 
   86400   0.65412057   -7.4772675    1.2699204 0.0012248461 0.0011867771          853 
   86500   0.64896408   -7.4881266    1.2788382 0.0012320214 0.0011848673          859 
   86600   0.64768019   -7.4610095    1.2791707 0.0012309187 0.0011830045          858 
   86700   0.62050788   -7.4870666    1.2826913 0.0012328828 0.0011811529          848 
   86800   0.64130843   -7.4955885     1.278132 0.0012270852 0.0011792894          848 
   86900    0.6163114   -7.4441118     1.283251 0.0012305821 0.0011774106          858 
   87000   0.65932122   -7.4538429    1.2855362 0.0012313565 0.0011755839          854 
   87100   0.62236807     -7.44364    1.2885823 0.0012328571 0.0011737934          852 
   87200   0.64650133   -7.4677958    1.2861426 0.0012291118 0.0011719801          855 
   87300    0.6300937   -7.5211543    1.2804466 0.0012222667 0.0011701843          857 
   87400   0.63161893   -7.3963742    1.2811657 0.0012215539 0.0011683443          857 
   87500    0.6291311   -7.4538764    1.2855921 0.0012243735 0.0011665432          860 
   87600   0.61977002   -7.5013408    1.2773221 0.0012151086 0.0011647014          858 
   87700   0.63786905   -7.4528961     1.274981 0.0012114985 0.0011628294          861 
   87800   0.63603616   -7.4663275    1.2924805 0.0012267279 0.0011610384          856 
   87900   0.62499483   -7.4445501    1.2805428 0.0012140148 0.0011592607          856 
   88000   0.64286154   -7.4897329    1.2889558  0.001220602 0.0011574805          860 
   88100   0.62959934   -7.4743826     1.287452 0.0012177941 0.0011556795          857 
   88200   0.67493472    -7.446132    1.2831034 0.0012123048 0.0011538955          859 
   88300   0.68658888   -7.5174815    1.2854955 0.0012131894 0.0011521271          860 
   88400   0.62876791   -7.4876488    1.2762045 0.0012030585 0.0011503291          857 
   88500   0.64273964   -7.4728465    1.2820715 0.0012072236 0.0011485237          855 
   88600   0.63767533   -7.4470984    1.2677606 0.0011924009 0.0011466704          862 
   88700   0.61317867   -7.4819698    1.2694613 0.0011926544 0.0011447925          860 
   88800   0.61387104   -7.5411133    1.2747119 0.0011962386 0.0011429149          860 
   88900   0.63271164    -7.466208    1.2794327 0.0011993182 0.0011410888          861 
   89000   0.62719579   -7.4458765    1.2791863   0.00119774 0.0011392961          858 
   89100   0.60852966   -7.4651334    1.2952574 0.0012114267 0.0011375502          860 
   89200   0.61637811   -7.4752558    1.3004682 0.0012149367 0.0011358689          860 
   89300   0.61699836   -7.4125175    1.3179689 0.0012299075 0.0011342838          858 
   89400    0.6319072    -7.448718    1.3047681 0.0012162268 0.0011327104          857 
   89500   0.62938323   -7.4962266    1.3026124 0.0012128607 0.0011310838          860 
   89600   0.64732189   -7.4624004    1.2917839 0.0012014359 0.0011294213          863 
   89700   0.60097922    -7.462961     1.277784 0.0011870903 0.0011276608          861 
   89800   0.62472124   -7.4609388    1.2714097 0.0011798531 0.0011258554          861 
   89900   0.64284845   -7.4491201    1.2815587 0.0011879484 0.0011240635          856 
   90000   0.63877094   -7.4873549    1.2866454 0.0011913383 0.0011223246          861 
   90100   0.61493326    -7.472556    1.2940803 0.0011968926 0.0011206109          860 
   90200   0.59461982   -7.4410764    1.3082431 0.0012086503 0.0011189833          860 
   90300   0.60210441   -7.4336498    1.2948184 0.0011949229 0.0011173634          859 
   90400   0.62303292   -7.4285579    1.3021324 0.0012003433 0.0011157368          863 
   90500   0.60953387   -7.4766346    1.2908995 0.0011886736 0.0011140995          861 
   90600    0.5786515   -7.5038438    1.2747604 0.0011725169   0.00111233          863 
   90700   0.59663993   -7.4430882    1.2776264 0.0011738574 0.0011105341          857 
   90800   0.60747875   -7.4258303    1.2858643 0.0011801251 0.0011088131          856 
   90900   0.60256824   -7.4349119    1.2809727 0.0011743424 0.0011070961          858 
   91000   0.61914681   -7.4881462    1.2701481 0.0011631393 0.0011053192          863 
   91100   0.59928725   -7.5005417    1.2770391  0.001168166 0.0011035229          860 
   91200   0.64012021   -7.4485429    1.2933507 0.0011817897 0.0011018665          862 
   91300   0.63250291   -7.4804712    1.3033415 0.0011896143 0.0011002624          859 
   91400   0.64227962   -7.5274291    1.3087487 0.0011932428 0.0010986969          860 
   91500   0.60821897   -7.4237702    1.2943244 0.0011788019  0.001097118          862 
   91600     0.639664   -7.4855544    1.2906549 0.0011741766 0.0010954669          860 
   91700   0.61070745   -7.4559283    1.2783438 0.0011617083 0.0010937717          862 
   91800   0.58314133   -7.4788819     1.282086 0.0011638399 0.0010920405          863 
   91900    0.6328171   -7.4355329    1.2757766 0.0011568522 0.0010903415          862 
   92000   0.63517917   -7.4656245    1.2840561 0.0011630943  0.001088615          859 
   92100   0.63749574   -7.5079319    1.2764663 0.0011549641 0.0010869061          858 
   92200   0.59259416    -7.491062    1.2890148 0.0011650531 0.0010852077          858 
   92300   0.62861117   -7.4315404     1.293706 0.0011680263 0.0010835656          860 
   92400   0.62572986   -7.4855698    1.3008394 0.0011731957 0.0010819926          861 
   92500   0.63264227   -7.4572711    1.2856659 0.0011582575 0.0010803396          859 
   92600   0.62449631   -7.4729813    1.2855214 0.0011568767 0.0010786884          860 
   92700   0.64985805   -7.4622622    1.2781201 0.0011489752 0.0010770204          860 
   92800   0.65038838   -7.4605804    1.2767961 0.0011465482 0.0010753259          854 
   92900   0.61277325   -7.4944099    1.2704304 0.0011396038 0.0010735848          857 
   93000   0.62055007   -7.4632136    1.2727833 0.0011404868 0.0010718733          856 
   93100   0.61341271   -7.4248157    1.2853063 0.0011504711 0.0010702046          860 
   93200   0.61182571   -7.4694714    1.2785064 0.0011431567 0.0010685649          862 
   93300   0.61062096   -7.4579675    1.2802359 0.0011434761 0.0010668963          863 
   93400    0.6358786   -7.4616719    1.2703805 0.0011334586 0.0010651726          861 
   93500   0.63003294   -7.4330233    1.2826865 0.0011432144 0.0010635213          860 
   93600   0.65184184    -7.453239    1.2891333 0.0011477327 0.0010618939          861 
   93700   0.60440837   -7.4662128    1.2864943 0.0011441607 0.0010603025          861 
   93800   0.62481769   -7.4727161    1.2807602 0.0011378466 0.0010586361          858 
   93900   0.64078951   -7.4216705    1.2762646 0.0011326452 0.0010569597          860 
   94000   0.64159502   -7.4710436    1.2801314 0.0011348683 0.0010553228          855 
   94100    0.6507427    -7.456406    1.2725813  0.001126976 0.0010536481          857 
   94200    0.6193576   -7.4928142     1.279189 0.0011316251 0.0010519849          859 
   94300   0.62901158    -7.450426    1.2850641 0.0011356169 0.0010503568          856 
   94400   0.65454223   -7.4702108    1.2786377 0.0011287409 0.0010487382          860 
   94500    0.6193245    -7.470667     1.285877 0.0011339303 0.0010471079          861 
   94600   0.63008002   -7.4810956    1.2847071 0.0011317011 0.0010455179          859 
   94700   0.63078545   -7.4579906    1.2866886 0.0011322497 0.0010439103          860 
   94800   0.61714631   -7.4744887    1.2746472 0.0011204704 0.0010423008          856 
   94900   0.63158345    -7.426617    1.2751766 0.0011197546 0.0010406343          857 
   95000   0.65561772   -7.4331457     1.284753 0.0011269763 0.0010390529          858 
   95100   0.63053826   -7.4815537    1.2827556  0.001124041 0.0010374615          857 
   95200     0.610502   -7.4809989    1.2879963 0.0011274478  0.001035869          859 
   95300   0.61874871   -7.4033515    1.2887912 0.0011269597 0.0010343118          858 
   95400   0.64359671   -7.4679576    1.2693671 0.0011088113 0.0010327156          861 
   95500   0.60628913   -7.4660489    1.2859682 0.0011221363 0.0010310861          860 
   95600   0.60482729   -7.4558417    1.2882252 0.0011229299 0.0010295296          861 
   95700   0.64274903   -7.4317575    1.2890843 0.0011225046 0.0010279847          862 
   95800   0.62337196   -7.4667507    1.2840869 0.0011169858 0.0010264493          859 
   95900   0.62227673   -7.5102401    1.2993696 0.0011291011  0.001024946          858 
   96000   0.64218056   -7.4548763    1.2957601 0.0011247917 0.0010234336          859 
   96100   0.62245264   -7.4947833    1.2844776 0.0011138376 0.0010219237          857 
   96200   0.61709911   -7.4813296    1.2804031 0.0011091503 0.0010203526          861 
   96300   0.61936774   -7.4594075    1.2892469 0.0011156515 0.0010187969          857 
   96400   0.65823324   -7.4258812    1.2868313  0.001112406 0.0010172853          853 
   96500   0.63996446   -7.4831355    1.2784544 0.0011040194 0.0010156983          859 
   96600   0.61429004   -7.4236876    1.2837492 0.0011074441  0.001014157          857 
   96700    0.6340284    -7.451705     1.292629 0.0011139512 0.0010126218          861 
   96800   0.62374951    -7.432915    1.2933428  0.001113415 0.0010111595          862 
   96900    0.5955489    -7.511071    1.2917056  0.001110858 0.0010096513          861 
   97000   0.60929877   -7.4742538     1.290077 0.0011083136 0.0010081503          860 
   97100   0.62844118   -7.4398489    1.2713461 0.0010910969 0.0010065845          858 
   97200     0.643848   -7.4355402    1.2569623 0.0010776426   0.00100494          860 
   97300   0.62392841   -7.4835848    1.2528872 0.0010730448 0.0010032229          858 
   97400   0.63267403   -7.4984245     1.276081 0.0010917873 0.0010016063          860 
   97500   0.62825577   -7.4386724    1.2869865 0.0010999885 0.0010000736          857 
   97600    0.6526751   -7.4568577    1.2962344 0.0011067575 0.00099862004          861 
   97700   0.60724336   -7.4854315      1.28558  0.001096537 0.00099713672          862 
   97800   0.62947831   -7.4570053      1.28993 0.0010991224 0.00099564016          861 
   97900   0.66139001   -7.4396351    1.2914348 0.0010992806 0.00099417206          859 
   98000    0.6375091   -7.4573159    1.2679823 0.0010782163 0.00099264728          859 
   98100   0.65565578   -7.5091299    1.2723423 0.0010808208 0.00099105541          863 
   98200   0.62316994   -7.4330849    1.2671262 0.0010752938 0.00098947028          860 
   98300   0.64449799   -7.4497421    1.2832317 0.0010878532 0.00098792238          857 
   98400   0.60831851   -7.4426163    1.2926545 0.0010947277 0.00098645257          859 
   98500   0.64289443   -7.4474652    1.2941202 0.0010948563 0.00098503507          854 
   98600   0.60021445   -7.4460734     1.291296  0.001091359 0.00098358885          857 
   98700   0.62815581   -7.4606532    1.2945562 0.0010930059 0.00098215044          860 
   98800   0.61611282   -7.4408558    1.2891749 0.0010873608 0.00098070747          858 
   98900   0.60878031   -7.4715948     1.293334 0.0010897658 0.00097926629          857 
   99000   0.60231388   -7.4799407    1.2927439 0.0010881683 0.00097784944          863 
   99100   0.61372761   -7.4433587    1.2948238 0.0010888192 0.00097644311          861 
   99200   0.65693988   -7.4701975    1.2942722 0.0010872582 0.00097502238          857 
   99300   0.63399469   -7.4792471    1.2900169 0.0010825922 0.00097362473          856 
   99400   0.63994151   -7.4520873    1.2894868 0.0010810587 0.00097218177          849 
   99500   0.65238894   -7.4923521    1.2824118 0.0010740467 0.00097071439          856 
   99600   0.63820081    -7.440755    1.2838029 0.0010741322 0.00096924789          860 
   99700   0.64160042    -7.461699    1.2832742  0.001072613 0.00096782951          859 
   99800   0.62007512    -7.503597    1.2691534 0.0010597474 0.00096632243          861 
   99900   0.63194882   -7.4432826    1.2967823 0.0010817336 0.00096486089          862 
  100000   0.61242151   -7.4479629     1.290879 0.0010757325 0.00096345729          858 
  100100   0.60206582   -7.4598739    1.2786552 0.0010644816 0.00096201241          858 
  100200   0.64417007   -7.5068339    1.2783854 0.0010631948 0.00096052742          856 
  100300   0.64047068   -7.4758307    1.2832091 0.0010661425 0.00095906142          859 
  100400   0.62545571   -7.4643852    1.2805412 0.0010628662  0.000957606          859 
  100500   0.60529297   -7.4582586    1.2834119  0.001064189 0.00095616821          859 
  100600   0.63002932   -7.4908508    1.2948172 0.0010725788 0.00095474797          852 
  100700   0.62795161    -7.464167    1.2924666 0.0010695685 0.00095337562          855 
  100800   0.63767685    -7.434352    1.2962217 0.0010716119 0.00095201402          857 
  100900   0.63583517   -7.4867774    1.3065963 0.0010791182 0.00095070829          858 
  101000   0.62925238   -7.4716125    1.2911809 0.0010653307 0.00094935108          859 
  101100   0.59276868   -7.4968427     1.298632 0.0010704187 0.00094796374          863 
  101200   0.62107244   -7.4406802    1.2927469 0.0010645149 0.00094662215          862 
  101300   0.65042132   -7.4556838    1.2839594 0.0010562351 0.00094522345          859 
  101400   0.61145354    -7.489402    1.2729474 0.0010461435 0.00094379722          862 
  101500   0.61052714     -7.48124    1.2786955 0.0010498321 0.00094231088          859 
  101600   0.62254371   -7.4508296    1.2723241 0.0010435729 0.00094085365          863 
  101700   0.63101135   -7.4292108    1.2655048  0.001036959 0.0009393803          859 
  101800   0.62939974   -7.4342883    1.2789843 0.0010469747  0.000937934          861 
  101900    0.6047987   -7.4913485    1.2811312  0.001047703 0.00093649852          862 
  102000   0.61512663   -7.4550526    1.2932065 0.0010565413 0.00093512368          859 
  102100   0.61931763   -7.4379055    1.2971855  0.001058754 0.0009337978          863 
  102200   0.63598556   -7.4536736     1.286708 0.0010491748 0.00093242998          860 
  102300   0.63570957   -7.4811317    1.2927301 0.0010530548 0.00093109026          861 
  102400   0.59847902   -7.4983247    1.2896221 0.0010494971 0.00092973851          856 
  102500   0.60273606   -7.4164806    1.2895548 0.0010484185 0.00092839498          859 
  102600    0.6430556   -7.4669569     1.266422 0.0010286079 0.00092696188          857 
  102700   0.62332557   -7.5132959    1.2803601  0.001038916 0.00092553196          861 
  102800   0.60485088   -7.4655026    1.2915726 0.0010469946 0.00092416806          858 
  102900   0.63145859    -7.465233    1.2894249 0.0010442378 0.00092280315          856 
  103000   0.61088195   -7.4616957    1.2803663  0.001035895 0.00092146304          855 
  103100   0.62738763   -7.4404103     1.290668  0.001043217 0.00092009119          855 
  103200   0.60388042   -7.4397428    1.2873753 0.0010395472 0.00091873208          855 
  103300   0.62089939   -7.4634738    1.2775414 0.0010306078 0.00091735824          859 
  103400   0.63276639   -7.5054523     1.262954 0.0010178546 0.00091591049          862 
  103500   0.65250251   -7.5019833    1.2864437  0.001035784 0.00091449232          855 
  103600   0.64679705    -7.459338    1.2886438 0.0010365539 0.00091318131          856 
  103700   0.62039303   -7.4650246    1.2787673 0.0010276176 0.0009118204          860 
  103800   0.59265281   -7.4598973    1.2831134 0.0010301168 0.00091044841          860 
  103900   0.62424767   -7.4746224    1.2851483 0.0010307574 0.00090909878          858 
  104000   0.63484243   -7.4339825     1.283985 0.0010288341 0.00090776626          857 
Loop time of 198.691 on 12 procs for 100000 steps with 864 atoms

Performance: 86969.182 tau/day, 503.294 timesteps/s
99.4% CPU use with 12 MPI tasks x no OpenMP threads

MPI task timing breakdown:
Section |  min time  |  avg time  |  max time  |%varavg| %total
---------------------------------------------------------------
Pair    | 10.058     | 11.114     | 12.34      |  21.7 |  5.59
Neigh   | 0.9779     | 1.0248     | 1.0766     |   2.9 |  0.52
Comm    | 7.1302     | 8.8207     | 10.101     |  28.7 |  4.44
Output  | 2.4796     | 2.4807     | 2.4883     |   0.1 |  1.25
Modify  | 172.68     | 173.08     | 174.03     |   2.9 | 87.11
Other   |            | 2.171      |            |       |  1.09

Nlocal:        72.0000 ave          78 max          68 min
Histogram: 1 2 2 2 0 1 2 0 0 2
Nghost:        1646.25 ave        1662 max        1630 min
Histogram: 1 0 0 2 4 1 1 2 0 1
Neighs:        8874.33 ave       10094 max        7975 min
Histogram: 4 1 0 1 2 0 1 0 1 2
FullNghs:      17749.7 ave       19399 max       16649 min
Histogram: 2 0 4 1 0 3 0 0 1 1

Total # of neighbors = 212996
Ave neighs/atom = 246.52315
Neighbor list builds = 4406
Dangerous builds = 0

#clear
#
#next RN
#
#jump SELF



Total wall time: 0:03:19
