
units lj                  # Use reduced LJ style units
atom_style atomic         # Uncharged point particles
atom_modify map hash      # Needed for indexing of clusters etc
                          # Used to be able to find where atoms are in relation to each other.

# Define a lattice with which to populate the simulation cell. With units
# set to 'lj' the second argument to the lattice command is the reduced
# density rho* and the spacings are multiples of that required to acheive
# that density. Also define a simulation cell called 'box' in lattice units
# and fill it with atoms. Here we're creating a box which is ten lattice
# constants in each direction.
lattice fcc 1.0 spacing 1 1 1                 # All equal sizes - gives the right reduced density.
Lattice spacing in x,y,z = 1.5874011 1.5874011 1.5874011

region box block 0 6 0 6 0 6 units lattice # Defines a region, "box", in lattice units
create_box 1 box                              # Creates a simulation box as specified above,
Created orthogonal box = (0.0000000 0.0000000 0.0000000) to (9.5244063 9.5244063 9.5244063)
  2 by 2 by 3 MPI processor grid
                                              # with one type of atom
create_atoms 1 box                            # Creates particles on lattice points
Created 864 atoms
  using lattice units in orthogonal box = (0.0000000 0.0000000 0.0000000) to (9.5244063 9.5244063 9.5244063)
  create_atoms CPU = 0.001 seconds


# Set the mass of the first (and only) atom type.
mass 1 1.0

# Lennard-Jones interactions between particles, 3.5 sigma cut-off. Apply
# long range tail corrections to energy and pressure and set all coefficients
# to unity since we work in reduced units here. Note that this doesn't shift
# the potential such that it goes to zero at the cutoff. That would require
# pair_modify('shift', 'yes').
pair_style lj/cut  3.5      # non-GPU version
pair_modify tail  yes
pair_coeff 1  1  1.0  1.0   # Intearaction between 1 and 1 set with epsilon = 1 and sigma = 1

write_data data.*
System init for write_data ...
Neighbor list info ...
  update every 1 steps, delay 10 steps, check yes
  max neighbors/atom: 2000, page size: 100000
  master list distance cutoff = 3.8
  ghost atom cutoff = 3.8
  binsize = 1.9, bins = 6 6 6
  1 neighbor lists, perpetual/occasional/extra = 1 0 0
  (1) pair lj/cut, perpetual
      attributes: half, newton on
      pair build: half/bin/atomonly/newton
      stencil: half/bin/3d
      bin: standard

#############################
#   M E L T   S Y S T E M   #
#############################

velocity all create 2.4 2750902 mom yes dist gaussian # Assign velocities
                                                    # Temperature 2.4, random number seed, zero linear momentum
						                                                        # Gaussian distribution

timestep 0.002   # simulation timestep
thermo 100       # output thermodynamic data every 100 steps

# Define a fix  in this case with index 1 applied to all
# particles in the simulation. This fix is for simulations
# in the anisotropic NPT ensemble. Note that we use the MTK
# correction.
fix 1 all npt temp 2.4 2.4 0.1 iso 5.68 5.68 0.5 mtk yes tchain 5 pchain 5 # Use NPT ensemble
                                                                         # Set temperature and pressure and damping
                                                                         # Numbers of thermostats in chain and in barostat
run 1000         # run for 10000 steps
Per MPI rank memory allocation (min/avg/max) = 3.633 | 3.633 | 3.634 Mbytes
Step Temp E_pair E_mol TotEng Press Volume 
       0          2.4   -8.3859253            0    -4.790092     -2.24275          864 
     100    1.3007594   -6.4407842            0   -4.4919034    5.3582762    891.69205 
     200    1.5828213   -6.0796178            0   -3.7081338    6.4338598    907.46239 
     300    1.7629056     -5.73851            0   -3.0972122    5.5953229    954.02439 
     400    1.8733232   -5.2785237            0   -2.4717912    6.0585808    994.36537 
     500      2.02574   -4.9360708            0   -1.9009777    5.7478153    1042.8978 
     600    2.2112838   -4.6895875            0   -1.3765009    5.7138268    1079.0368 
     700    2.3146746   -4.4629638            0  -0.99497044    5.6088298    1118.0222 
     800    2.4734008     -4.39503            0   -0.6892229    5.7937797    1123.7282 
     900    2.4206618   -4.2767239            0  -0.64993368    5.5531987    1146.9555 
    1000    2.3618098   -4.2459295            0  -0.70731524    5.7000582    1143.3852 
Loop time of 0.218275 on 12 procs for 1000 steps with 864 atoms

Performance: 791661.485 tau/day, 4581.374 timesteps/s
99.8% CPU use with 12 MPI tasks x no OpenMP threads

MPI task timing breakdown:
Section |  min time  |  avg time  |  max time  |%varavg| %total
---------------------------------------------------------------
Pair    | 0.066776   | 0.08566    | 0.12549    |   6.5 | 39.24
Neigh   | 0.011814   | 0.014206   | 0.019538   |   2.2 |  6.51
Comm    | 0.053414   | 0.09852    | 0.12053    |   6.9 | 45.14
Output  | 0.00021151 | 0.00021957 | 0.00025818 |   0.0 |  0.10
Modify  | 0.016959   | 0.017834   | 0.01823    |   0.3 |  8.17
Other   |            | 0.001836   |            |       |  0.84

Nlocal:        72.0000 ave          80 max          66 min
Histogram: 2 1 2 2 1 0 2 0 0 2
Nghost:        1314.75 ave        1327 max        1295 min
Histogram: 1 0 0 2 3 0 0 1 2 3
Neighs:        6211.67 ave        7136 max        5326 min
Histogram: 2 0 0 2 1 4 1 0 0 2

Total # of neighbors = 74540
Ave neighs/atom = 86.273148
Neighbor list builds = 80
Dangerous builds = 2

# Equilibrate just above the melting temperature to avoid step fn in T

fix 1 all npt temp 1.25 1.25 0.1 iso 5.68 5.68 0.5 mtk yes tchain 5 pchain 5
run 1000
Per MPI rank memory allocation (min/avg/max) = 3.634 | 3.634 | 3.634 Mbytes
Step Temp E_pair E_mol TotEng Press Volume 
    1000    2.3618098   -4.2459295            0  -0.70731524    5.7000582    1143.3852 
    1100    1.8617945   -4.5967525            0    -1.807293    5.9593679    1083.5566 
    1200      1.66126   -5.0091582            0   -2.5201524    5.9308167    1028.0056 
    1300    1.4533368   -5.3154554            0   -3.1379734    5.5185254    997.93023 
    1400    1.3100587   -5.5224566            0    -3.559643    5.2858775     978.0358 
    1500    1.3306301   -5.7450087            0   -3.7513736    5.2687861    956.68836 
    1600    1.2302857    -5.777427            0   -3.9341343     5.385203    950.58576 
    1700    1.2545134   -5.8251615            0   -3.9455694    5.6370291    940.07281 
    1800    1.2669685   -5.8434457            0   -3.9451925    6.1076728    931.13358 
    1900    1.2975362   -5.8185374            0   -3.8744858    5.5765884    942.23221 
    2000    1.2225624   -5.8503078            0   -4.0185867    5.1330896    948.19804 
Loop time of 0.165294 on 12 procs for 1000 steps with 864 atoms

Performance: 1045410.884 tau/day, 6049.832 timesteps/s
99.9% CPU use with 12 MPI tasks x no OpenMP threads

MPI task timing breakdown:
Section |  min time  |  avg time  |  max time  |%varavg| %total
---------------------------------------------------------------
Pair    | 0.07131    | 0.077816   | 0.087254   |   1.9 | 47.08
Neigh   | 0.01003    | 0.010692   | 0.011792   |   0.5 |  6.47
Comm    | 0.049954   | 0.06042    | 0.06746    |   2.3 | 36.55
Output  | 0.00018591 | 0.00019235 | 0.00023485 |   0.0 |  0.12
Modify  | 0.014106   | 0.014368   | 0.014706   |   0.2 |  8.69
Other   |            | 0.001805   |            |       |  1.09

Nlocal:        72.0000 ave          79 max          65 min
Histogram: 1 1 0 4 0 1 1 3 0 1
Nghost:        1466.08 ave        1476 max        1447 min
Histogram: 1 1 0 0 2 0 0 4 1 3
Neighs:        7466.67 ave        8131 max        6694 min
Histogram: 1 0 2 0 3 1 3 0 0 2

Total # of neighbors = 89600
Ave neighs/atom = 103.70370
Neighbor list builds = 67
Dangerous builds = 0


# Small amount of linear quench

fix 1 all npt temp 1.25 ${temp} 0.1 iso 5.68 5.68 0.5 mtk yes tchain 5 pchain 5
fix 1 all npt temp 1.25 0.83 0.1 iso 5.68 5.68 0.5 mtk yes tchain 5 pchain 5
run 2000
Per MPI rank memory allocation (min/avg/max) = 3.634 | 3.634 | 3.634 Mbytes
Step Temp E_pair E_mol TotEng Press Volume 
    2000    1.2225624   -5.8503078            0   -4.0185867    5.1330896    948.19804 
    2100    1.2500156   -5.8633927            0   -3.9905394    5.4114004    941.30933 
    2200    1.2242327   -5.9093093            0   -4.0750856    5.8006001    929.20605 
    2300     1.174055   -5.9239873            0   -4.1649431    6.2944316    918.97218 
    2400    1.1761394   -5.9802889            0   -4.2181217    5.8982549    920.76533 
    2500    1.1189507   -5.9880546            0   -4.3115713    5.7575053    920.44014 
    2600    1.1155774   -6.0432649            0   -4.3718355    5.5617354    919.24014 
    2700    1.1075672   -6.0537216            0   -4.3942938    5.5664093    918.50283 
    2800     1.081892   -6.1389704            0   -4.5180107    5.7042318    909.11199 
    2900    1.0867808   -6.1282637            0   -4.4999793    5.8064814    908.52983 
    3000    1.0496845    -6.183146            0   -4.6104416    6.0922179    898.04078 
    3100    1.0230108   -6.2256863            0   -4.6929461    5.8055826    899.66055 
    3200   0.97369179   -6.2584326            0   -4.7995853    5.5090831    900.28206 
    3300   0.93848647   -6.3187431            0   -4.9126427    5.0765696     901.7377 
    3400   0.90686962   -6.3127681            0   -4.9540381    5.4007688    896.60482 
    3500   0.94301706   -6.3799505            0   -4.9670621    5.3873544    892.42048 
    3600   0.89179506    -6.353745            0   -5.0176007    5.6607702    888.75824 
    3700   0.90333371   -6.3554449            0   -5.0020126    5.9055595    885.49054 
    3800   0.90604557   -6.4469631            0   -5.0894677    5.8183775    879.75108 
    3900   0.83117543   -6.4231216            0   -5.1778014    6.1576588    875.22389 
    4000   0.84178956   -6.4917858            0   -5.2305629    5.8266815    875.43291 
Loop time of 0.351867 on 12 procs for 2000 steps with 864 atoms

Performance: 982188.055 tau/day, 5683.959 timesteps/s
99.8% CPU use with 12 MPI tasks x no OpenMP threads

MPI task timing breakdown:
Section |  min time  |  avg time  |  max time  |%varavg| %total
---------------------------------------------------------------
Pair    | 0.1548     | 0.16952    | 0.18573    |   2.2 | 48.18
Neigh   | 0.0176     | 0.018606   | 0.020443   |   0.6 |  5.29
Comm    | 0.11083    | 0.12895    | 0.1441     |   2.7 | 36.65
Output  | 0.00039341 | 0.0004109  | 0.00050047 |   0.0 |  0.12
Modify  | 0.029396   | 0.030015   | 0.030739   |   0.2 |  8.53
Other   |            | 0.004362   |            |       |  1.24

Nlocal:        72.0000 ave          77 max          64 min
Histogram: 1 0 0 1 0 2 4 1 2 1
Nghost:        1562.00 ave        1582 max        1543 min
Histogram: 2 2 0 1 0 3 0 2 0 2
Neighs:        8145.75 ave        8906 max        7238 min
Histogram: 1 1 0 2 1 2 0 3 0 2

Total # of neighbors = 97749
Ave neighs/atom = 113.13542
Neighbor list builds = 114
Dangerous builds = 0

#############################
# F R E E Z E  S Y S T E M  #
#############################

# Define solid atoms. This closely follows ten Wolde  Ruiz-Montero and Frenkel  Faraday Discuss  1996  104  93-110
# Compute components of the per-atom q6 vector
compute q6 all orientorder/atom degrees 1 6 components 6 nnn NULL cutoff 1.3 # compute the Q6 parameter.
                                                                             # Use all neighbours within 1.3 unit cell.

# get number of connections
compute coord_number all coord/atom orientorder q6 0.5

# An atom is solid if it has 8 or more connections (of a possible 14)
variable is_solid atom c_coord_number>=8
group solid dynamic all var is_solid    # Must be dynamic to update
dynamic group solid defined

# do clustering
compute cluster solid cluster/atom 1.3 # Create a cluster where all atoms within are solid and max 1.3 units from another member

# define chunks one chunk per cluster
compute clus_chunks solid chunk/atom c_cluster nchunk every compress yes  # Says which atoms are in which chunk

# count the size of each chunk
compute size_chunks solid property/chunk clus_chunks count


# Find the maximum entry in the vector of chunk sizes
variable max_n equal max(c_size_chunks)


# Thermo style which includes this variable
# thermo_style custom step temp pe vol v_max_n

thermo ${N}  # Print the thermo information every 100 steps
thermo 100  

# Reset the npt fix at a lower temperature (below freezing)

compute myRDF all rdf 100
fix 2 all ave/time 1 50 100 c_myRDF[*] file pcf.rdf mode vector


compute msd all msd com yes
variable twopoint equal c_msd[4]/6/(step*dt+1.0e-6)
fix 9 all vector 10 c_msd[4]
variable fit equal slope(f_9)/6/(10*dt)
thermo_style custom step temp pe c_msd[4] v_twopoint v_fit v_max_n


fix 1  all npt temp  ${temp} ${temp}  0.1  iso  5.68  5.68  0.5  mtk yes tchain  5  pchain  5
fix 1  all npt temp  0.83 ${temp}  0.1  iso  5.68  5.68  0.5  mtk yes tchain  5  pchain  5
fix 1  all npt temp  0.83 0.83  0.1  iso  5.68  5.68  0.5  mtk yes tchain  5  pchain  5

dump dmp2 all dcd ${N} traj.dcd
dump dmp2 all dcd 100 traj.dcd
dump dmp3 all dcd ${N} traj_unwrap.dcd
dump dmp3 all dcd 100 traj_unwrap.dcd
dump_modify dmp3 unwrap yes


# fix rnuntil all halt ${N} v_max_n >= 3980 error soft message no   # Stop when solidified

run 100000 # 5000000  # Run for this many steps
Neighbor list info ...
  update every 1 steps, delay 10 steps, check yes
  max neighbors/atom: 2000, page size: 100000
  master list distance cutoff = 3.8
  ghost atom cutoff = 3.8
  binsize = 1.9, bins = 6 6 6
  5 neighbor lists, perpetual/occasional/extra = 1 4 0
  (1) pair lj/cut, perpetual
      attributes: half, newton on
      pair build: half/bin/atomonly/newton
      stencil: half/bin/3d
      bin: standard
  (2) compute orientorder/atom, occasional
      attributes: full, newton on
      pair build: full/bin/atomonly
      stencil: full/bin/3d
      bin: standard
  (3) compute coord/atom, occasional
      attributes: full, newton on
      pair build: full/bin/atomonly
      stencil: full/bin/3d
      bin: standard
  (4) compute cluster/atom, occasional
      attributes: full, newton on
      pair build: full/bin/atomonly
      stencil: full/bin/3d
      bin: standard
  (5) compute rdf, occasional, copy from (1)
      attributes: half, newton on
      pair build: copy
      stencil: none
      bin: none
Per MPI rank memory allocation (min/avg/max) = 9.699 | 9.704 | 9.706 Mbytes
Step Temp PotEng c_msd[4] v_twopoint v_fit v_max_n 
    4000   0.84178956   -6.4917858            0            0 8.3333333e+20            8 
    4100   0.82473129   -6.5303935  0.037886168 0.00077004397  0.034416983            5 
    4200   0.84239867   -6.5980037  0.061113531 0.0012125699  0.026927952            3 
    4300   0.80205467   -6.5067252  0.082524415 0.0015993102    0.0227461            4 
    4400   0.81855596   -6.5243231   0.09937216 0.0018820483  0.020180999            6 
    4500   0.84486452   -6.5322179   0.11049702 0.0020462408  0.018200136            5 
    4600   0.84077007   -6.6455246   0.12009411 0.0021756176  0.016019879            8 
    4700   0.82872868   -6.5776513   0.13213561 0.0023428297  0.014549309            4 
    4800   0.86858267   -6.5528065   0.14587301 0.0025325174  0.013703646            7 
    4900   0.85122322   -6.6055621   0.15372267 0.0026143309  0.012932863            5 
    5000   0.81613597   -6.6281409   0.16825891  0.002804315  0.012362566            5 
    5100   0.81254082   -6.6141113   0.18249831 0.0029819983  0.012011375            7 
    5200   0.85866585   -6.5901775   0.19435896 0.0031147266  0.011799145            3 
    5300   0.80857492   -6.5557369   0.20090009 0.0031588062   0.01153559            4 
    5400   0.79581012   -6.5730374   0.20547182 0.0031708611  0.011160285            5 
    5500   0.84687604   -6.5480801   0.21721277 0.0032911023  0.010801739            7 
    5600   0.84612161   -6.5805231    0.2293562 0.0034130384  0.010530712           25 
    5700   0.84661795   -6.6071211   0.25294232 0.0036979868  0.010476737           17 
    5800   0.83470157   -6.5441068   0.26862172 0.0038595071  0.010541717           22 
    5900   0.82449973   -6.5921957   0.28214282 0.0039850678  0.010598382           13 
    6000    0.8358841   -6.5862641   0.29956332 0.0041606013  0.010663998            8 
    6100   0.84610465   -6.5555123   0.31361902 0.0042844125  0.010758898            8 
    6200   0.81114043   -6.5252134   0.32806234 0.0044094397  0.010802583            7 
    6300    0.8227704   -6.5906266   0.33592201 0.0044434125  0.010843212            5 
    6400     0.804283   -6.5787886   0.34020737 0.0044297831  0.010813669           15 
    6500    0.8378313   -6.6238563   0.35298527 0.0045254518  0.010749719           35 
    6600   0.80583274   -6.5887539   0.36919508 0.0046615537  0.010710941           38 
    6700   0.80858733   -6.6273416   0.38566039 0.0047967707  0.010708813           57 
    6800   0.84052086   -6.5834177   0.39320187 0.0048186501  0.010710693           39 
    6900   0.83424381   -6.6082185   0.40436376 0.0048836199  0.010677089           53 
    7000   0.82767099   -6.6107631   0.43214396 0.0051445706  0.010700058           33 
    7100    0.8468201   -6.5930514   0.45334222 0.0053209177  0.010776914           45 
    7200   0.81171326   -6.5874196   0.47078899 0.0054489462  0.010865795           44 
    7300   0.84369626   -6.6272539   0.47624466 0.0054365825  0.010917447           11 
    7400   0.79504164   -6.6365771   0.48047001  0.005410698   0.01093037            7 
    7500   0.86008166   -6.6101641   0.49060842 0.0054512042   0.01092334           15 
    7600   0.83710965   -6.5547462   0.51232569 0.0056176059  0.010934302           17 
    7700   0.83954026   -6.6065886   0.51263221 0.0055479673  0.010933873           14 
    7800    0.8217478   -6.5770716   0.51942172  0.005549377  0.010903988           23 
    7900   0.86854163   -6.6098404   0.54000691 0.0056962751  0.010883922           34 
    8000   0.81677117   -6.6114378   0.55219551 0.0057520362  0.010874794           13 
    8100    0.8012231   -6.6369848   0.56465805 0.0058092388  0.010859053           11 
    8200    0.8234247    -6.609763   0.57534533  0.005847005  0.010844655            5 
    8300    0.8672477     -6.58991   0.58998835 0.0059235775  0.010828065            5 
    8400   0.79815125   -6.5932627   0.59381588 0.0058910302  0.010795973           13 
    8500   0.80163316   -6.6318225   0.61147582 0.0059948606  0.010765184           18 
    8600   0.78931183   -6.6620828   0.61705233 0.0059791889  0.010734706           16 
    8700   0.82989173   -6.5919203    0.6275478 0.0060109939  0.010699279           19 
    8800   0.82805821    -6.542635   0.63821193 0.0060436732  0.010664569           22 
    8900   0.83745014   -6.6478219   0.64157351 0.0060072423  0.010629003           17 
    9000   0.85935288   -6.6315483   0.64338128 0.0059572338   0.01057541           14 
    9100   0.83708977   -6.6407497   0.65705901 0.0060170235  0.010519646           11 
    9200   0.83669259   -6.6883163   0.67384499  0.006103668  0.010476607           17 
    9300   0.80300695   -6.6367012   0.69264757 0.0062065191  0.010444877           15 
    9400   0.82894324   -6.6051328   0.69762864 0.0061846507  0.010413039           38 
    9500   0.83846695   -6.5586848   0.69200226 0.0060701949  0.010360278           24 
    9600   0.79163357   -6.6079001   0.69646556 0.0060457076  0.010296415           22 
    9700    0.8389206   -6.6198882   0.70960428 0.0060962564  0.010230859           14 
    9800   0.83550716   -6.5881633   0.72808465 0.0061911957  0.010179351           17 
    9900   0.79392978   -6.6114214   0.73504138 0.0061872167  0.010127355           18 
   10000    0.8289262   -6.5546835   0.74092998 0.0061744162  0.010077614           10 
   10100   0.81784426   -6.6479332   0.76219201 0.0062887126  0.010039674           15 
   10200   0.83719628   -6.6094739   0.78239444 0.0063921112  0.010012046           14 
   10300   0.85524509   -6.6147741   0.79576305 0.0064382121 0.0099950984           18 
   10400   0.79348182   -6.5850258   0.80361049 0.0064391863 0.0099755111           18 
   10500   0.83501551   -6.5582549   0.81184775 0.0064432358 0.0099514259           23 
   10600   0.81610746   -6.6016857   0.80953561 0.0063642733 0.0099234966           12 
   10700    0.8359709   -6.5907802    0.8101937 0.0063099195  0.009879178            8 
   10800   0.81859126   -6.6325626   0.81128473 0.0062599127 0.0098302534           26 
   10900   0.82329921   -6.6013592   0.81583937 0.0062373038 0.0097757521           39 
   11000   0.85517387   -6.6060269   0.83314031 0.0063116688 0.0097266147           26 
   11100   0.79373982   -6.6217238    0.8205359 0.0061601791 0.0096682584           27 
   11200   0.78867665   -6.6124984   0.82242282 0.0061192171 0.0095971647           21 
   11300   0.82430313   -6.6288724   0.83280405 0.0061416225 0.0095270038           11 
   11400    0.8095359    -6.637076   0.83457686 0.0061007078 0.0094605079           22 
   11500   0.81477211   -6.6295431   0.85508689 0.0061962815 0.0094001151           11 
   11600   0.83945825   -6.6035011   0.86285825 0.0061986941 0.0093455749            9 
   11700   0.84381415   -6.5731247   0.87408594 0.0062256831 0.0092951435           10 
   11800   0.81923823   -6.5444417    0.8802133 0.0062161954 0.0092462774           15 
   11900   0.84077957   -6.6399869   0.86942787 0.0060884302 0.0091895908            9 
   12000   0.81589592   -6.6038559    0.8870733  0.006160231 0.0091317402           23 
   12100   0.82792589   -6.5982318   0.88916564 0.0061237301 0.0090789372           13 
   12200   0.84056742   -6.6451065   0.90375539 0.0061731923  0.009023775            4 
   12300   0.80263415   -6.5968405   0.93654391 0.0063451482 0.0089812099            5 
   12400   0.79423351   -6.6247686   0.93294957 0.0062698221 0.0089462912           14 
   12500   0.80482056   -6.6010675   0.93965941 0.0062643958 0.0089062685            6 
   12600   0.83688441   -6.5955552   0.94630348 0.0062586206 0.0088669263           10 
   12700   0.81837315   -6.6031192   0.95887333 0.0062918195 0.0088312478           11 
   12800   0.79812452   -6.6282182   0.97726265 0.0063623868  0.008801868            6 
   12900   0.82462618     -6.59416    0.9982553 0.0064486774 0.0087781491           13 
   13000   0.83427251   -6.6537283    1.0043079 0.0064378708 0.0087571074           11 
   13100   0.84190848   -6.5773675    1.0079366 0.0064118102 0.0087376063           13 
   13200   0.83649231   -6.5308348    1.0093876 0.0063723963 0.0087124631           23 
   13300   0.82033183   -6.6053042    1.0276942 0.0064391867 0.0086903262           44 
   13400   0.84142275   -6.6411421     1.042145  0.006481001 0.0086727568            6 
   13500   0.85210427   -6.5677969     1.043882  0.006443716 0.0086540761            5 
   13600   0.88016476   -6.5765141    1.0565224 0.0064737888 0.0086378821            7 
   13700   0.83081336   -6.5785749    1.0690726 0.0065028746 0.0086237759            7 
   13800   0.83352359   -6.6189621    1.0920083 0.0065942531 0.0086134985            6 
   13900   0.84051055   -6.6471621    1.1172396 0.0066980789 0.0086103587            4 
   14000   0.87796445   -6.6482523    1.1504367 0.0068478371 0.0086142101           14 
   14100   0.81269177   -6.6442962     1.161799  0.006866424 0.0086221436           13 
   14200     0.852936   -6.6486029    1.1619063 0.0068186985 0.0086278077            6 
   14300   0.80587222   -6.5667381    1.1638052 0.0067820814 0.0086286225            4 
   14400     0.822508   -6.5522579     1.190931 0.0068919615 0.0086327969            5 
   14500    0.8535345   -6.5014201    1.2129017 0.0069706994 0.0086451844            8 
   14600   0.82906693   -6.5450988    1.2458579  0.007111061 0.0086646227            2 
   14700   0.86721782   -6.5574573     1.259629 0.0071407536 0.0086876242            1 
   14800   0.84567588   -6.5802436    1.2729229 0.0071673584 0.0087124059            2 
   14900   0.81999131   -6.5646142    1.2877554 0.0072022111 0.0087355139            3 
   15000   0.84290037   -6.5624092    1.3041489 0.0072452715 0.0087600869            5 
   15100    0.7954326   -6.5340407    1.3101488 0.0072304018 0.0087816878            9 
   15200   0.86205195   -6.6285579     1.330519 0.0072945116   0.00880349           12 
   15300   0.82152837   -6.5425567    1.3514071 0.0073606047 0.0088290903            5 
   15400   0.83149487   -6.5786083    1.3463644 0.0072855214 0.0088499302           10 
   15500   0.85633936   -6.6428899    1.3654976 0.0073413846 0.0088695332            5 
   15600   0.84209016   -6.5743387    1.3788557 0.0073656819 0.0088896197            4 
   15700   0.83408345   -6.5266229    1.3942327 0.0074003858 0.0089120328            4 
   15800   0.81061415   -6.5430668    1.4124211 0.0074494779 0.0089348127            5 
   15900   0.85928294   -6.5812746    1.4423632 0.0075595555 0.0089626267            4 
   16000   0.81225516   -6.5558709    1.4670467  0.007640868 0.0089945136            1 
   16100   0.85865744   -6.6109648     1.467029 0.0075933173 0.0090244943            3 
   16200   0.83616075   -6.5112484    1.4817898 0.0076223754 0.0090512529            2 
   16300   0.85302433   -6.5968901    1.5041129 0.0076897385 0.0090793797            8 
   16400   0.82429867   -6.5697097    1.5177743 0.0077122678 0.0091093529            2 
   16500   0.86336833   -6.5924238    1.5451147 0.0078036096 0.0091417978            2 
   16600   0.86396229   -6.5260328    1.5696748 0.0078798931  0.009177828            3 
   16700   0.83491117   -6.5466663    1.5912377 0.0079403078  0.009215452            4 
   16800   0.82988449   -6.6073946    1.6015612 0.0079442515 0.0092513729            2 
   16900   0.85515122   -6.5421195    1.6206905 0.0079915704 0.0092887445            3 
   17000   0.86113268   -6.5600316    1.6403994 0.0080411734 0.0093269222            3 
   17100   0.83323535   -6.5302278    1.6390485 0.0079875656 0.0093619108            9 
   17200   0.81932655   -6.6035363      1.65019 0.0079951063  0.009393536           12 
   17300   0.83205086   -6.6938876    1.6571443 0.0079823906 0.0094226401            8 
   17400   0.84698705    -6.602067    1.6732321 0.0080135635 0.0094505607           16 
   17500   0.81258895   -6.5951436     1.675867 0.0079803189 0.0094754737            7 
   17600   0.80626723   -6.6112526    1.6899498 0.0080016562 0.0094977419            6 
   17700   0.82478515   -6.5541053    1.7109012 0.0080550901 0.0095223358            4 
   17800   0.86861885   -6.5437904    1.7181886 0.0080439539  0.009547176            9 
   17900   0.85170432   -6.6222002    1.7383353 0.0080928083  0.009569526           10 
   18000   0.78889516   -6.6046589    1.7492567 0.0080984103 0.0095908779           15 
   18100   0.83010685   -6.6162225    1.7823316 0.0082059462 0.0096146806           12 
   18200   0.86650337   -6.5566575    1.8096728 0.0082860474 0.0096438211            7 
   18300   0.83087328   -6.5519228    1.8104144 0.0082441455 0.0096737151            5 
   18400   0.82332969   -6.5504609    1.7954611  0.008131617 0.0096958535            8 
   18500   0.83141924   -6.5778971    1.8440045 0.0083063263 0.0097194403            6 
   18600   0.82510259   -6.5763942    1.8769754 0.0084093876 0.0097504995            3 
   18700   0.87026041   -6.5992919    1.8869251  0.008408757  0.009780477            4 
   18800   0.83288327   -6.6151821    1.8916818 0.0083851144 0.0098087065            6 
   18900   0.85413623   -6.6465944    1.9121158 0.0084308456 0.0098362697            8 
   19000   0.83023655   -6.6443573    1.9191072 0.0084171365   0.00986108           10 
   19100   0.82024169   -6.6848437    1.9306695 0.0084235141 0.0098853146            4 
   19200   0.79028562   -6.6187836    1.9393504 0.0084173193 0.0099078921            8 
   19300   0.81121559   -6.5957951    1.9419103 0.0083847593 0.0099280483            5 
   19400   0.86028688   -6.5792597    1.9466173 0.0083617582 0.0099458805            6 
   19500   0.83539465   -6.5446612    1.9473395 0.0083219635 0.0099617356            2 
   19600   0.84657678   -6.5939241     1.955675 0.0083149446 0.0099763522            3 
   19700   0.84135315   -6.5922547    1.9761846 0.0083594947 0.0099916264            7 
   19800   0.83098358   -6.5757319    1.9873092 0.0083640957  0.010005515            3 
   19900    0.8830766   -6.5630973    2.0336736 0.0085162211  0.010023317           11 
   20000   0.83969028     -6.58315    2.0412962 0.0085054007  0.010042332           14 
   20100    0.8505939   -6.6254365    2.0344064 0.0084345203  0.010057354            8 
   20200   0.78707264   -6.6046199    2.0240549 0.0083500611  0.010068295            9 
   20300    0.8247885   -6.6127203     2.045073 0.0083952093  0.010077749            4 
   20400    0.8556982    -6.612487    2.0625147 0.0084253048  0.010089411            3 
   20500   0.86088048   -6.5871902    2.0881793 0.0084885334  0.010102329            4 
   20600   0.85918001   -6.5094698    2.1094181 0.0085332445  0.010116806            6 
   20700    0.8355368   -6.5965631    2.1451368 0.0086358162  0.010133376            5 
   20800   0.82497951   -6.6091637    2.1572153 0.0086426894  0.010150736            4 
   20900   0.85174254   -6.5588884     2.148353 0.0085660006  0.010165231            3 
   21000   0.84037822   -6.5862213    2.1524347 0.0085414074   0.01017618            5 
   21100   0.83734379    -6.595031    2.1519694 0.0084990889  0.010185549           12 
   21200   0.80613309    -6.575179    2.1639522 0.0085061011  0.010194227            3 
   21300    0.8119177   -6.5482366    2.2037456 0.0086218527   0.01020448            5 
   21400   0.85358224   -6.5607308    2.2432692 0.0087354717  0.010218589           13 
   21500    0.8322353   -6.6097934    2.2540983  0.008736815  0.010233651            1 
   21600    0.8369256   -6.5828818    2.2423176 0.0086509163  0.010246473            7 
   21700   0.84492582   -6.5802534    2.2202111 0.0085261561  0.010255176            3 
   21800   0.82738345   -6.4999722    2.2106232 0.0084503945   0.01025908            5 
   21900   0.81905885   -6.5168353     2.213488 0.0084227091  0.010260438            4 
   22000   0.78722622   -6.5681001    2.2267014  0.008434475  0.010260003            4 
   22100   0.81781277    -6.549823    2.2511536 0.0084885128  0.010260557            6 
   22200   0.86280342   -6.5678297    2.2641589 0.0084990948  0.010263484            7 
   22300   0.83793859    -6.575424    2.2682764 0.0084763689  0.010266045            4 
   22400    0.8472585   -6.5976328    2.2677147 0.0084364383    0.0102659            8 
   22500   0.79342915   -6.6069225    2.2962142  0.008504497  0.010264729            8 
   22600   0.80132656   -6.5740872     2.336427 0.0086151438   0.01026753           14 
   22700   0.81665445   -6.5096393    2.3615276 0.0086693375  0.010273315            5 
   22800   0.83080782   -6.5680666    2.3578818 0.0086179887  0.010279398           12 
   22900   0.79387425   -6.5830169     2.364043 0.0086027764  0.010282864            9 
   23000   0.80960243   -6.5751095    2.3824454 0.0086320484  0.010286268           15 
   23100   0.84775717   -6.5839812    2.4120614 0.0087015199  0.010291346           12 
   23200   0.86696998   -6.5524739     2.434719 0.0087453985  0.010298551            6 
   23300   0.79042709   -6.5531052    2.4400503 0.0087269324  0.010305584            4 
   23400   0.84700898   -6.5924726    2.4415309 0.0086949106  0.010311473            3 
   23500   0.89230694   -6.5524108    2.4502105 0.0086886896  0.010315932            6 
   23600   0.82966556   -6.5648472    2.4722651 0.0087297496  0.010321954            1 
   23700   0.86345695   -6.5485179     2.472905  0.008695165  0.010327437            7 
   23800   0.84610097   -6.5591426    2.4814761 0.0086886415  0.010331826            7 
   23900   0.85077931    -6.591174     2.459972 0.0085773079   0.01033261           12 
   24000   0.79879661   -6.6062698    2.4703172 0.0085774902  0.010330178            5 
   24100   0.81910151   -6.5432073    2.4973274 0.0086352952  0.010329861           15 
   24200   0.83079742   -6.5790826      2.48174 0.0085459366  0.010327441            5 
   24300   0.84630409   -6.6162075    2.4733242 0.0084819074  0.010322985            8 
   24400   0.84962224   -6.5791157    2.4750692 0.0084531052  0.010316902           34 
   24500   0.81171484   -6.5363655     2.480875 0.0084383501  0.010309873            8 
   24600   0.78332937   -6.5526667    2.4920025 0.0084417428  0.010302404            9 
   24700   0.80640124   -6.6000576    2.5244129 0.0085169126   0.01029678            8 
   24800   0.84720178   -6.5944751    2.5395598 0.0085334671  0.010291861           12 
   24900   0.85689425   -6.5980908    2.5502383 0.0085349338  0.010288222            6 
   25000   0.82331861   -6.5898539    2.5794136 0.0085980451  0.010285889            5 
   25100   0.84321198   -6.5535208    2.6058526 0.0086515688  0.010285263            7 
   25200   0.80111288   -6.6129071    2.6150064 0.0086475076   0.01028436           17 
   25300   0.82883992   -6.6381132    2.6351627 0.0086797188  0.010284086           14 
   25400   0.83417516   -6.6091148    2.6433275 0.0086723343  0.010283922            9 
   25500   0.84473868   -6.5467729    2.6609519 0.0086959211  0.010284249            9 
   25600   0.82790723    -6.614864    2.6825944 0.0087324033  0.010285439           20 
   25700   0.84462254   -6.6343747    2.7087174 0.0087831301  0.010287441            7 
   25800   0.82955396   -6.5593542    2.7338982 0.0088304203  0.010290546           10 
   25900    0.8628171   -6.5666419    2.7512441 0.0088521364  0.010294252           12 
   26000   0.84060865   -6.6017985    2.7361805 0.0087698092  0.010296997           10 
   26100   0.80929924   -6.6220138    2.7490447 0.0087772817  0.010298524            7 
   26200   0.81947359   -6.5853397    2.7468626 0.0087368403  0.010298428           14 
   26300   0.79874459   -6.6185441    2.7587322 0.0087412299  0.010298008            7 
   26400   0.82820386   -6.5760921    2.7689569 0.0087403941  0.010297207            7 
   26500   0.86127418   -6.6066748    2.7739126 0.0087229953  0.010296618            7 
   26600   0.83482637   -6.6433173     2.783242 0.0087194296  0.010294354           14 
   26700   0.80459098   -6.6015916    2.8092933 0.0087680813  0.010293668           11 
   26800   0.82806585   -6.5364262    2.8263015 0.0087882507  0.010294229            6 
   26900   0.85387124   -6.5849416    2.8380904 0.0087921015  0.010295685            4 
   27000   0.81204242   -6.5737122    2.8583523 0.0088220748  0.010296531           10 
   27100   0.83509731   -6.6307499    2.8901386 0.0088872649  0.010298465           17 
   27200   0.80229956   -6.5312617    2.9198439 0.0089456002   0.01030116           11 
   27300   0.85129717   -6.5725775    2.9785198 0.0090919405  0.010307639           14 
   27400   0.83024069   -6.6085672    2.9635849 0.0090133359   0.01031409           13 
   27500   0.80036473   -6.5750681    2.9454216 0.0089255198  0.010318396            9 
   27600    0.8115139     -6.67581    2.9397109 0.0088759384  0.010320175            7 
   27700   0.82744375    -6.636089    2.9562549 0.0088936667  0.010321001            6 
   27800   0.84707477   -6.5657383    2.9570005 0.0088639103  0.010322415            2 
   27900   0.80752484   -6.5468245    2.9843961 0.0089139667   0.01032437            2 
   28000   0.85240903   -6.5840681    3.0006286 0.0089304422  0.010327456            3 
   28100   0.86273874   -6.6002263    3.0262358 0.0089746018  0.010330079            2 
   28200   0.78788918   -6.5605093     3.071995 0.0090779994  0.010334734            3 
   28300   0.84858511   -6.5949865     3.097459 0.0091209038  0.010340628            3 
   28400   0.81395711   -6.6130205    3.1013651 0.0091002494  0.010346701            3 
   28500   0.84505618   -6.6044094    3.1078752 0.0090873543  0.010352189           13 
   28600   0.85678663   -6.5664572    3.1125001 0.0090690562  0.010357483            8 
   28700   0.84841891   -6.6200893    3.1366228 0.0091074993  0.010362182           20 
   28800   0.79671087    -6.612956    3.1348859 0.0090708501  0.010366578           12 
   28900   0.83436906    -6.611161    3.1701795 0.0091412326  0.010371789           19 
   29000   0.85138874    -6.568481    3.1722093 0.0091155439  0.010378047            7 
   29100   0.87585085   -6.5378942    3.1720252 0.0090836917  0.010383487            5 
   29200   0.86888091   -6.6177657    3.1533983 0.0089994243  0.010386021           10 
   29300   0.84000545   -6.6212969    3.1633221 0.0089969341  0.010387342            8 
   29400   0.79654343   -6.6224684    3.1721909 0.0089914707  0.010387774            4 
   29500    0.8501343   -6.6376747    3.1700616 0.0089549761  0.010387454           10 
   29600   0.84758779   -6.5457031    3.1738146 0.0089352888  0.010388029           10 
   29700    0.8221016    -6.566959    3.1855811 0.0089382185  0.010387042           11 
   29800   0.82887663   -6.6089846    3.2045622 0.0089613036  0.010386669            8 
   29900   0.83201697   -6.5835979    3.2212966 0.0089779726  0.010386597            4 
   30000   0.89694886   -6.6143399    3.2406716 0.0090018655  0.010386794            6 
   30100   0.84657639   -6.5979082    3.2519669 0.0090032305  0.010387561            4 
   30200    0.8595811   -6.6596985    3.2719381 0.0090285265  0.010388649           15 
   30300   0.79964843   -6.6096048    3.2835561 0.0090306822  0.010389409           18 
   30400   0.84827792   -6.5952908    3.2652413 0.0089507708  0.010388362           19 
   30500   0.78498614   -6.5398583    3.2625505 0.0089140723  0.010386615           11 
   30600   0.85038125   -6.5687242    3.3087141 0.0090106591  0.010385622            5 
   30700   0.80546318   -6.6201669      3.38061 0.0091764657  0.010387726            3 
   30800   0.80538585   -6.6162801    3.3951581 0.0091860337  0.010391357           10 
   30900   0.81088583   -6.5995198    3.4409864 0.0092798985  0.010395244            6 
   31000   0.82272436   -6.5817967    3.4537863 0.0092843717  0.010400663            6 
   31100   0.81110439   -6.6378778    3.4532662 0.0092531247  0.010406124            7 
   31200    0.7736096   -6.5817551    3.4321882 0.0091671692  0.010409586            2 
   31300   0.82214908   -6.5987161    3.4448383 0.0091715607  0.010411886            6 
   31400    0.8519889   -6.5690759    3.4453586 0.0091437329   0.01041428            4 
   31500   0.80217129   -6.6205676    3.4566743  0.009144641  0.010416691            6 
   31600   0.85395063   -6.6058638    3.4519573 0.0091032627  0.010417584           13 
   31700   0.82854396   -6.5664063    3.4634003 0.0091046273  0.010418239            7 
   31800   0.80435286   -6.5956263    3.5041622 0.0091828148  0.010419967            2 
   31900   0.79877356   -6.6406979    3.5319982 0.0092267453  0.010422236            4 
   32000    0.8315055   -6.6444637    3.5451422 0.0092321411  0.010424608            4 
   32100   0.84363217   -6.5630389    3.5534632 0.0092249821  0.010428027            5 
   32200   0.84686729   -6.5954926    3.5453019 0.0091752118  0.010430759            5 
   32300   0.83694043    -6.598352    3.5306533 0.0091090126   0.01043115            6 
   32400   0.81642484   -6.5447247    3.5510283 0.0091333032  0.010431828            5 
   32500    0.8163867   -6.5092382    3.5544814 0.0091140546  0.010432105            5 
   32600   0.87778632   -6.5196235    3.5587117 0.0090969112  0.010432111            6 
   32700   0.84508055   -6.5106421    3.5691857 0.0090957841  0.010431674            3 
   32800   0.83942679   -6.5945923     3.608005 0.0091666793   0.01043267           19 
   32900   0.83814896   -6.6481726    3.6294132 0.0091930425  0.010433868           16 
   33000   0.80626785   -6.6509748    3.6641828 0.0092529866  0.010435063            9 
   33100   0.82996189   -6.6080802    3.6487364  0.009186144  0.010435816            8 
   33200   0.87983943   -6.5560169    3.6417799 0.0091410138  0.010435875           16 
   33300   0.83951778    -6.555199    3.6382438  0.009104714  0.010435027           22 
   33400   0.85670085   -6.5404751    3.6709047 0.0091589438  0.010435339           20 
   33500    0.8615824   -6.5729868    3.6789576 0.0091516358  0.010435959           24 
   33600   0.83951819   -6.5468732    3.7007798 0.0091785213  0.010436493           22 
   33700   0.85761327   -6.5784899    3.7367942 0.0092403415  0.010437904           35 
   33800   0.85018378   -6.5953001     3.778089  0.009314815  0.010440256           16 
   33900   0.87363813   -6.5634867    3.7651712 0.0092555829  0.010442731           22 
   34000   0.83900934   -6.5370052     3.771576 0.0092440588  0.010444049            9 
   34100   0.85034678   -6.6107822    3.7830089 0.0092448896  0.010445635            8 
   34200   0.77790641   -6.5877329     3.796847 0.0092515765  0.010447052           21 
   34300   0.80966134   -6.5284746    3.8132318 0.0092644114   0.01044788            6 
   34400   0.81320793   -6.5078347    3.8303521 0.0092789536  0.010449513           20 
   34500   0.84271296    -6.552759    3.8366161 0.0092671885  0.010450402            8 
   34600   0.81061014   -6.5809026    3.8478975 0.0092675758    0.0104513           17 
   34700   0.78942613   -6.6372357    3.8724959 0.0092999421  0.010452259            3 
   34800   0.81768336   -6.5575544    3.9033543 0.0093471126  0.010453616            8 
   34900    0.8593705   -6.5847112    3.8849432 0.0092763686  0.010455092           10 
   35000   0.82816621    -6.610372    3.9038483 0.0092948768   0.01045601            3 
   35100   0.85812123   -6.5852946    3.9206412 0.0093082649  0.010457739            4 
   35200   0.80898422   -6.5541855    3.9422271 0.0093329239  0.010460002            4 
   35300   0.83667025   -6.6278195    3.9651205 0.0093605299   0.01046271            5 
   35400    0.8513996   -6.5572887    3.9625185 0.0093279623  0.010464303           17 
   35500   0.81835814   -6.5589686    3.9724095 0.0093249049   0.01046623           16 
   35600   0.81322714   -6.6968434    4.0051832 0.0093754286  0.010467309           12 
   35700    0.8037141   -6.6478154    3.9833288 0.0092981529  0.010467525           11 
   35800   0.81262718   -6.5576174    3.9753802 0.0092536781  0.010466416           13 
   35900   0.85593545   -6.5788752    4.0340196 0.0093640193  0.010467229            6 
   36000   0.83060922   -6.6102866    4.0391363 0.0093498524  0.010468987            6 
   36100     0.833646   -6.5966735    4.0475112 0.0093432852  0.010470977           11 
   36200   0.82198271   -6.5175882    4.1009082 0.0094403962  0.010473539           11 
   36300   0.80634579   -6.5601812    4.1284712 0.0094776656  0.010477525           18 
   36400   0.81230483   -6.5852167    4.1025126 0.0093921991  0.010479959           25 
   36500    0.8195724   -6.5325569    4.1620811 0.0095024682   0.01048305            8 
   36600   0.80228015   -6.6125242    4.1583342  0.009467974  0.010486548            2 
   36700   0.83177332   -6.5821723    4.1896767 0.0095133439  0.010489983            6 
   36800   0.84867633   -6.5842489    4.1752463  0.009454815  0.010493884            6 
   36900   0.85047205   -6.6207698    4.1837905 0.0094484879  0.010496921            3 
   37000   0.85854626   -6.5735411    4.1801976 0.0094148593   0.01049964            2 
   37100    0.8525979   -6.5897532    4.2093352 0.0094549308  0.010502035            5 
   37200   0.79667506   -6.5823991    4.2350001 0.0094870073  0.010504767            7 
   37300   0.83652253   -6.5843608    4.2265994 0.0094428047  0.010507573            5 
   37400   0.89375981   -6.5618327    4.2196265 0.0094020197  0.010509244            3 
   37500   0.84414661   -6.5642127     4.207713 0.0093504731  0.010510335            4 
   37600   0.83578662   -6.5622432    4.2172358 0.0093467105  0.010510728            4 
   37700   0.82202977   -6.5872308    4.2156882 0.0093184973  0.010511254            2 
   37800   0.81531511   -6.6193725    4.2198413 0.0093030009   0.01051033            6 
   37900   0.84067069   -6.6110269    4.2849702 0.0094216582  0.010510142            3 
   38000   0.82580684   -6.6584048    4.2576073 0.0093368581  0.010509969            5 
   38100   0.82212736   -6.5907734    4.2565991 0.0093101467  0.010508863            3 
   38200   0.80392604   -6.5599789    4.2605167 0.0092943208  0.010507149           10 
   38300    0.8624185   -6.5706034    4.2987411 0.0093532224  0.010506532            4 
   38400   0.83298914   -6.5351847    4.3109503 0.0093553608  0.010506375            4 
   38500    0.8122255    -6.579395    4.3135075 0.0093365963  0.010506353            5 
   38600   0.82829521    -6.584928    4.3337117 0.0093560269   0.01050553            8 
   38700   0.82760534   -6.5818119    4.3545147 0.0093766464  0.010505291            7 
   38800   0.85513162   -6.6155679    4.3481874 0.0093388903  0.010504823            2 
   38900   0.80575101   -6.5855353    4.3016098 0.0092151022  0.010502952            7 
   39000   0.82219875   -6.6205188     4.312578 0.0092149102   0.01049991           12 
   39100   0.84976018   -6.5954971     4.327599 0.0092233567  0.010496957            6 
   39200   0.80592921   -6.5824368    4.3248805 0.0091940486  0.010493817            7 
   39300   0.80662446   -6.6508219    4.3691278 0.0092644777  0.010490737            7 
   39400   0.83310503   -6.5811937    4.4026283 0.0093118194  0.010489399            4 
   39500   0.83814716   -6.5759873    4.3782758 0.0092368687  0.010487492            5 
   39600   0.83319745   -6.6213573    4.3646503   0.00918487  0.010484994           15 
   39700   0.85022993   -6.6535922    4.4019279 0.0092399828  0.010482479            6 
   39800   0.83681771   -6.5862225    4.4222235 0.0092592618  0.010479935            8 
   39900   0.83139659   -6.5789386    4.4515522 0.0092973103   0.01047752            6 
   40000   0.84293856   -6.5615991    4.4631864 0.0092983048  0.010475594            6 
   40100   0.80409756   -6.5936512    4.4245915 0.0091949115  0.010472441            8 
   40200   0.82049089   -6.6000792    4.4782446 0.0092832598   0.01046956           10 
   40300   0.83277135   -6.5593267     4.491559 0.0092877562  0.010467362           11 
   40400    0.8198099   -6.6510916    4.4912646 0.0092641596  0.010464432           20 
   40500   0.80799328   -6.5643411    4.5180224 0.0092963422  0.010462017           22 
   40600   0.86729804   -6.6451135    4.5141222 0.0092654395  0.010459465           29 
   40700   0.82050831   -6.5836967    4.5330411 0.0092814108   0.01045709           11 
   40800   0.85492059   -6.5993619    4.5371033 0.0092669592  0.010454975            8 
   40900   0.84570527   -6.5857832    4.5153505 0.0091999804  0.010452325           10 
   41000   0.80257913    -6.568375    4.5248302 0.0091968092  0.010449059            8 
   41100   0.84281824   -6.6406609    4.5699424 0.0092659009  0.010445801           11 
   41200   0.85358207   -6.6079488    4.5684994 0.0092404922  0.010442092           19 
   41300   0.81451898   -6.6155271    4.5947361 0.0092710575  0.010438932            6 
   41400   0.82824458   -6.6155876    4.6106053 0.0092806065  0.010436024            3 
   41500   0.81479836   -6.6151022    4.5824005 0.0092016074  0.010432681            4 
   41600    0.8248911   -6.5872747    4.5762561 0.0091671795  0.010428584            4 
   41700   0.82370181   -6.5817367    4.6127947 0.0092182147  0.010424386            6 
   41800   0.81538282   -6.5768889     4.602791 0.0091762179  0.010420776            8 
   41900   0.82054324   -6.5931922     4.641701 0.0092317043  0.010416911            4 
   42000   0.86579882   -6.5551027    4.6597849 0.0092456048  0.010414005            7 
   42100   0.82439825    -6.582128    4.6971441 0.0092975931  0.010411963            9 
   42200   0.81160552   -6.6237406    4.6887659 0.0092590163  0.010409329            7 
   42300   0.86740203   -6.6474387    4.7077427 0.0092745127  0.010406472           17 
   42400   0.81309954    -6.666111    4.6905191 0.0092187875  0.010403189           15 
   42500   0.81106471   -6.6081965    4.7243086   0.00926335   0.01040022           12 
   42600   0.85198345   -6.6309541    4.7179123 0.0092290929  0.010397287            7 
   42700   0.82084052    -6.657292     4.770272 0.0093096642  0.010395015            6 
   42800   0.81308423   -6.5983291    4.7928849 0.0093319408  0.010393342            6 
   42900   0.85233317   -6.5906402    4.8214779 0.0093657302  0.010392203           10 
   43000   0.83999818   -6.6512548    4.8182548 0.0093377029   0.01039066           16 
   43100   0.78888538   -6.5996814    4.8746597 0.0094250959  0.010389524            3 
   43200   0.84540122   -6.6455403    4.8806111  0.009414759  0.010388743            3 
   43300    0.7982959   -6.6109288    4.8732496 0.0093788483    0.0103877            6 
   43400   0.82911583    -6.543916    4.8383027 0.0092901357  0.010385884           13 
   43500   0.79794578   -6.5580504    4.8361906 0.0092647328  0.010383347           21 
   43600   0.82527967   -6.5562246    4.8169964 0.0092067972  0.010380077           24 
   43700   0.85768083   -6.6121805    4.8568539  0.009261735  0.010377257            8 
   43800   0.82702412   -6.6065897     4.866326  0.009258611  0.010373951           12 
   43900   0.85044932   -6.6267261    4.8544414 0.0092149609  0.010370497           10 
   44000   0.81010937   -6.6108975    4.8756569 0.0092341985  0.010367167            5 
   44100   0.84485629   -6.6054293     4.891419  0.009243044  0.010364134            8 
   44200   0.84141151   -6.5414007    4.9109022 0.0092588652   0.01036179            7 
   44300   0.83861998   -6.5602185    4.9474696 0.0093067523  0.010359946            2 
   44400   0.85990933   -6.5957444     4.993248 0.0093717116  0.010358899            5 
   44500   0.82165845   -6.6316416    5.0045824  0.009371877  0.010358218           12 
   44600   0.84012426   -6.6742698    5.0451639 0.0094266888  0.010357464            3 
   44700   0.84216367   -6.5824039    5.0331919 0.0093832809  0.010356755            6 
   44800   0.83368303   -6.5692026    5.0234475 0.0093442102   0.01035566            5 
   44900   0.80443226   -6.6185389    5.0207342 0.0093183632  0.010353686            4 
   45000    0.8304184   -6.5915319    5.0325569 0.0093195498  0.010351799            2 
   45100   0.84424953   -6.5624715    5.0537062 0.0093379641  0.010350111            6 
   45200   0.77608511   -6.5502936    5.0490818  0.009308779  0.010348315            7 
   45300   0.83907342   -6.5822591    5.1163343 0.0094119468  0.010346825            3 
   45400   0.78974151   -6.5374178    5.1823622 0.0095124122  0.010347022            5 
   45500   0.82468198   -6.5987311    5.1536244 0.0094388724  0.010347204            2 
   45600   0.82078332   -6.6037007    5.1943734 0.0094926413  0.010347054            4 
   45700   0.83724352   -6.5408242    5.2306772 0.0095380691     0.010348           10 
   45800   0.81515474   -6.5658448    5.2164239 0.0094913098  0.010348798            5 
   45900   0.85783519   -6.6159102     5.181309 0.0094068789  0.010348794            4 
   46000   0.86540876   -6.6015144    5.2204945 0.0094574176  0.010348987            6 
   46100   0.87954445   -6.5462663    5.2809621 0.0095462076  0.010350412           11 
   46200   0.82998507   -6.5468656    5.2944415 0.0095498583  0.010352414           13 
   46300   0.80248734   -6.5724062     5.290003 0.0095212436  0.010353443            4 
   46400   0.83178532   -6.5788071    5.3645224 0.0096345587  0.010354872           12 
   46500   0.79413531   -6.5341225    5.3840635 0.0096488592  0.010357105            7 
   46600   0.80958474   -6.5675912    5.3875967 0.0096344719  0.010359567            6 
   46700   0.79878564   -6.6292105    5.4183616 0.0096687394  0.010362056           10 
   46800   0.79765909   -6.5284058    5.4412412 0.0096888198  0.010364762            6 
   46900    0.8077705   -6.5325722    5.4567401 0.0096957002  0.010367473            4 
   47000   0.78806896   -6.5708121    5.4475607 0.0096587954  0.010370105            9 
   47100   0.80592208    -6.503865    5.4358979 0.0096176537  0.010372621            5 
   47200   0.83711283   -6.5346582    5.4593803 0.0096387363  0.010374617           11 
   47300   0.83128737   -6.6039674    5.4682716 0.0096340231  0.010376731           16 
   47400   0.79248723   -6.5569815    5.4732643 0.0096224757  0.010378422           18 
   47500   0.82471891   -6.5527517     5.514845 0.0096751665  0.010380397           13 
   47600   0.79980683   -6.5705395    5.5248595 0.0096723729  0.010382322            9 
   47700   0.84556411   -6.5293801    5.5028028 0.0096135617  0.010384061            7 
   47800   0.83826447   -6.5619467    5.5069225 0.0096006318  0.010385474            5 
   47900   0.82158209   -6.5624312     5.490217 0.0095515257  0.010386087            6 
   48000    0.7912328   -6.5434263    5.4995319 0.0095477984  0.010386424            2 
   48100   0.84546731   -6.5906859    5.5075109 0.0095417722  0.010386689            4 
   48200   0.84478491   -6.5653972    5.5406613 0.0095792898  0.010386814            7 
   48300   0.79405082    -6.577072    5.5142015 0.0095138051  0.010386455            8 
   48400   0.85899408   -6.6010842    5.5285629 0.0095188754  0.010385995            6 
   48500    0.8514226   -6.4984825    5.5302074 0.0095020745  0.010385686            4 
   48600   0.81266333   -6.5210195    5.5680019 0.0095473283  0.010386258            5 
   48700   0.85697851   -6.5795026    5.5773183 0.0095436657  0.010386824            3 
   48800   0.82864765   -6.6223079    5.5576993 0.0094906067  0.010387023            7 
   48900    0.8231509   -6.5961569    5.5874547 0.0095219063  0.010387194           17 
   49000   0.83480088   -6.6130213    5.6549819  0.009617316  0.010388243            6 
   49100   0.86432828   -6.6085448    5.6982539 0.0096711708  0.010390251            4 
   49200   0.83106252   -6.5864733    5.7243637 0.0096957379  0.010392518            4 
   49300   0.84464375   -6.5572092    5.7197428 0.0096682603  0.010394569           11 
   49400   0.83495032   -6.5983673    5.7094182 0.0096312721  0.010396029            3 
   49500   0.84337609   -6.6169875    5.6842402 0.0095694279   0.01039689            4 
   49600   0.85443244   -6.6727276    5.7012383 0.0095786932  0.010397468            4 
   49700   0.85073072   -6.5548032    5.6895905   0.00953989  0.010397818            3 
   49800   0.83322864   -6.5537561    5.7124335 0.0095589583  0.010398023            4 
   49900   0.82599313   -6.6161185    5.7459864 0.0095958357  0.010398547            4 
   50000   0.84437188   -6.5764651    5.7220599 0.0095367665  0.010399021            2 
   50100   0.82504049   -6.5586804    5.7033563 0.0094866205  0.010398557            5 
   50200   0.80876409   -6.5840555    5.7283103 0.0095091471  0.010398253           10 
   50300   0.83570372   -6.6061679    5.7596863 0.0095422238  0.010397987           11 
   50400    0.8612332   -6.5713086    5.8339619 0.0096461009  0.010398346            4 
   50500   0.81402184   -6.5518813    5.8373776 0.0096326362  0.010399076            3 
   50600   0.84490406   -6.5677113    5.8127935 0.0095731117  0.010399354            9 
   50700   0.81392084   -6.5754964    5.7549806 0.0094592053  0.010398503            6 
   50800   0.81918085   -6.5839384    5.7191527  0.009381812  0.010396626            6 
   50900   0.89341008    -6.595719    5.7129116 0.0093531624  0.010393922            7 
   51000   0.82060439   -6.5613174    5.6800347 0.0092811024  0.010390588            8 
   51100    0.8551835   -6.6279855    5.7139769 0.0093182922  0.010387383            7 
   51200   0.81733936   -6.6453942    5.7535669 0.0093645294  0.010384404           14 
   51300   0.83166909    -6.620977    5.8068856 0.0094328875  0.010382092           13 
   51400    0.8249251   -6.6448663    5.8379708 0.0094649331  0.010380091            5 
   51500   0.83240603   -6.5881316    5.8085772 0.0093989922  0.010377825            5 
   51600   0.79523654   -6.5978965    5.7495418 0.0092854356  0.010374565            9 
   51700   0.81524344   -6.6381404    5.7877727 0.0093290984  0.010370959            8 
   51800   0.82558462   -6.6049036    5.8139275 0.0093531652  0.010368253            9 
   51900   0.82768986   -6.6171463    5.8401604 0.0093772645   0.01036532            9 
   52000   0.81017197   -6.6023182    5.8729081 0.0094117116  0.010362419            3 
   52100    0.7994958   -6.6585074    5.8945663 0.0094282889  0.010360213           10 
   52200   0.83775215    -6.599667    5.9094265 0.0094339502  0.010358255            9 
   52300   0.85387834    -6.618431    5.9225984 0.0094368998  0.010356758            3 
   52400    0.8352617   -6.6175715    5.9394152 0.0094456347  0.010355312            2 
   52500     0.811592   -6.5799209    5.9715923 0.0094787178  0.010354054            2 
   52600   0.85643916   -6.6437953    5.9795395 0.0094732881  0.010352789            3 
   52700   0.79550731   -6.5992849    5.9916494 0.0094744613  0.010351284            4 
   52800   0.82215871   -6.5916323    5.9910453 0.0094555639  0.010349445            7 
   52900   0.85607907   -6.5230535    5.9982568 0.0094490496  0.010347391           16 
   53000   0.87214464   -6.6085169    5.9563791 0.0093653758  0.010345266           12 
   53100   0.84195342   -6.6019059    6.0059705 0.0094255656  0.010343211            6 
   53200   0.87162248   -6.5244308    6.0147283 0.0094215668  0.010341707            4 
   53300   0.83534491   -6.5925922    6.0410865 0.0094451007  0.010340498            4 
   53400   0.82940149   -6.6071489    6.0911251  0.009505501  0.010339154            3 
   53500   0.77764058   -6.5971216     6.052678 0.0094278473  0.010337468            6 
   53600   0.82659372   -6.6208501    6.0303792 0.0093755895  0.010334965            5 
   53700    0.8315911   -6.6298066    6.0407662 0.0093742492  0.010331935            5 
   53800   0.85762004   -6.5472636    6.0485382 0.0093688633  0.010329019            9 
   53900   0.79219351   -6.4770226    6.0953487 0.0094238539  0.010326923            8 
   54000   0.80840613   -6.5415353    6.1047358 0.0094208886  0.010325121            4 
   54100   0.83491484   -6.5977867    6.1378234 0.0094544414  0.010323489            2 
   54200   0.79524349   -6.6187484    6.1320386 0.0094281035  0.010321603            4 
   54300     0.841527   -6.5947963    6.1561791 0.0094477885  0.010319547            2 
   54400    0.8189926   -6.5861907    6.1601989 0.0094365791  0.010317492            8 
   54500   0.83035242   -6.5894631    6.1976915 0.0094765924  0.010315884            6 
   54600   0.84557727   -6.5007526    6.2082282 0.0094753176  0.010314549            3 
   54700    0.8502193   -6.5758824      6.21393 0.0094666818  0.010313054            8 
   54800   0.84175859   -6.6384115    6.2223354 0.0094621887  0.010311559            9 
   54900   0.82786527   -6.6434788    6.2853955 0.0095406731  0.010310275            9 
   55000   0.83966158   -6.5429061     6.273129 0.0095047408  0.010309721            5 
   55100   0.84443646    -6.510937    6.2768082 0.0094930553   0.01030899            1 
   55200   0.84540234    -6.549106    6.2483452 0.0094328882   0.01030791            5 
   55300   0.83416529   -6.5749788    6.2671511 0.0094441698  0.010306388            5 
   55400   0.85205207   -6.5988682    6.3152321 0.0094994466  0.010304966            8 
   55500    0.8153474   -6.5660356     6.329309 0.0095034669  0.010303913            5 
   55600   0.80568988   -6.6360857    6.3483003 0.0095148385  0.010302783            6 
   55700   0.80743497   -6.5729735    6.3889149 0.0095585201  0.010301932            4 
   55800   0.85251734   -6.6042469    6.4034834 0.0095631472  0.010301667           14 
   55900   0.87116083    -6.673297    6.3730911 0.0095007321  0.010300949            3 
   56000   0.83738397    -6.629111    6.3496398 0.0094488687  0.010299518            6 
   56100   0.82292322   -6.5644582      6.37249 0.0094659684   0.01029813            4 
   56200     0.796953    -6.605349    6.3737324 0.0094509673  0.010296807            1 
   56300   0.84609078   -6.6345745    6.4261284 0.0095117353  0.010295691            7 
   56400   0.80098162   -6.6081854    6.4518883 0.0095329318  0.010294493            3 
   56500   0.83708909   -6.5705824    6.4513872 0.0095153203  0.010293482            3 
   56600   0.82632817   -6.5320295    6.4449262 0.0094889961  0.010292345            8 
   56700   0.80511166   -6.5480504    6.4734482 0.0095141801  0.010291478            7 
   56800   0.85445236    -6.555225    6.5796787 0.0096532843  0.010291397            6 
   56900   0.81980035   -6.5542117    6.6005464  0.009666881    0.0102925            4 
   57000   0.78565377   -6.6137492    6.6420026   0.00971053  0.010293418            4 
   57100    0.8309448   -6.6355623    6.7053554 0.0097859827  0.010294934            4 
   57200   0.80637326   -6.5809217    6.7002742 0.0097614717  0.010296595            6 
   57300   0.84013676   -6.5818475    6.7256961 0.0097814079  0.010298544            3 
   57400   0.84409443   -6.5530222    6.7367942 0.0097804794  0.010300815            7 
   57500   0.82394756   -6.5910088    6.7548097 0.0097895792  0.010303056            3 
   57600   0.83718273   -6.6016666    6.7431997 0.0097557865   0.01030496            3 
   57700    0.8274516   -6.5970642    6.7524303 0.0097522101  0.010306935            3 
   57800   0.83568464   -6.5931894      6.73576 0.0097113033  0.010308389            6 
   57900   0.84516409   -6.6157796    6.7268937 0.0096817698  0.010309427            5 
   58000   0.80361822   -6.6277887    6.7249676 0.0096623098  0.010309932            3 
   58100   0.87277428   -6.6669164    6.7824221 0.0097280866  0.010310998            3 
   58200    0.8376534   -6.6287793    6.7782816 0.0097054432  0.010312096            8 
   58300   0.83804514   -6.5283113    6.8026953 0.0097236924  0.010313115            7 
   58400   0.85349636    -6.645925    6.8171165 0.0097276205  0.010313966           12 
   58500   0.80800623    -6.618713    6.8439532 0.0097492211  0.010314745            3 
   58600   0.82730181   -6.5592507    6.8587567 0.0097536358  0.010315798            6 
   58700   0.86093395    -6.530965    6.8749772  0.009760047  0.010317315            3 
   58800   0.81146127   -6.5366924    6.8172731 0.0096616681  0.010318348            7 
   58900    0.8529676   -6.6155991     6.856838 0.0097012422  0.010319172            9 
   59000   0.86385609    -6.596946    6.8724313 0.0097068238  0.010320055            7 
   59100   0.85308616   -6.5869433    6.9024592 0.0097327399  0.010321165            4 
   59200   0.83243201   -6.6062131    6.9187141 0.0097391809  0.010322365            5 
   59300   0.81502697   -6.5768982    6.9485774 0.0097647236  0.010323517            3 
   59400   0.85264953   -6.5666629    6.9446497 0.0097427745  0.010325247            4 
   59500   0.82591486   -6.5476267    6.9661443 0.0097565045  0.010326888           12 
   59600   0.87334859   -6.5457706    7.0036627 0.0097925932   0.01032879           29 
   59700   0.83596165   -6.5528438    7.0038476 0.0097764483  0.010330582           17 
   59800   0.77820435   -6.5601166    7.0323172  0.009799773  0.010332282           24 
   59900   0.81806616   -6.5654458    7.0721882 0.0098388817   0.01033429            9 
   60000   0.81112376   -6.5465932     7.080321 0.0098337791  0.010336086           11 
   60100   0.83530008   -6.5259439    7.0954972 0.0098384597  0.010337716            4 
   60200   0.87789201   -6.6113951    7.0082337 0.0097013201  0.010338761            5 
   60300   0.82095347   -6.5685938    6.9674605  0.009628884  0.010338664            5 
   60400   0.79179748   -6.5554764    6.9760301 0.0096247656   0.01033851            5 
   60500   0.87301023   -6.6129733    7.0056247 0.0096496207  0.010338139           10 
   60600   0.81866946   -6.6080868    7.0242848 0.0096593575  0.010338034            4 
   60700   0.82757334    -6.529801    7.0177966 0.0096345367  0.010337614            4 
   60800   0.84621612   -6.5403551    7.0522587 0.0096659247  0.010337801            4 
   60900   0.84442648    -6.594582    7.0679488 0.0096715226  0.010337798            3 
   61000   0.81223919   -6.5733552    7.1028638 0.0097033658  0.010338122            6 
   61100   0.81269204   -6.5034248     7.170314 0.0097794789  0.010339086            2 
   61200   0.85770176   -6.5255172    7.2217873 0.0098335883  0.010340565            3 
   61300   0.82176991   -6.5494427    7.2496843 0.0098554707  0.010342644            3 
   61400   0.78498964   -6.5603031    7.2096312 0.0097850585  0.010343672            9 
   61500   0.81825301   -6.5865535    7.2835253 0.0098692754  0.010344917            8 
   61600   0.85919371   -6.5349429    7.2382897 0.0097920585  0.010346329            6 
   61700   0.82234331   -6.5142492    7.2215344  0.009753558  0.010347563            9 
   61800   0.81205577   -6.5677208    7.2026072 0.0097122534  0.010348248           11 
   61900   0.81929901   -6.5912203    7.2533546 0.0097648822  0.010348857            4 
   62000   0.83072495   -6.6078576    7.2988483   0.00981028  0.010349862            6 
   62100   0.83163355   -6.6040846     7.309871 0.0098092739  0.010350961           16 
   62200   0.82855041   -6.6158291    7.2852904 0.0097605712  0.010351984           15 
   62300   0.78880544   -6.6092502    7.2653853 0.0097182788  0.010352388            6 
   62400   0.82052954   -6.5968678    7.3124013 0.0097654931  0.010352732            5 
   62500   0.84072308   -6.6397141    7.3145935 0.0097527912  0.010353267           15 
   62600   0.81464754   -6.6642522    7.2742266 0.0096834751  0.010353186            6 
   62700   0.83492882   -6.6152894    7.2868021 0.0096847449  0.010352946           12 
   62800   0.85385743   -6.5494958    7.3296801 0.0097262209  0.010353434            5 
   62900   0.82282717   -6.6289239    7.3578879 0.0097481291  0.010353868            4 
   63000   0.82061371   -6.6182251    7.3797683 0.0097615982  0.010354252           13 
   63100   0.81915659   -6.5539459    7.4611938 0.0098536632  0.010355104            7 
   63200   0.83792755   -6.5773545     7.478697  0.009861151  0.010356372            3 
   63300   0.83217169   -6.5824097    7.4606069 0.0098217573  0.010357617            6 
   63400   0.81694891   -6.6058419    7.4496789 0.0097919017  0.010358561            8 
   63500   0.82902309   -6.6125348    7.4807099 0.0098172045   0.01035957            8 
   63600   0.85860441   -6.5791071    7.5354248   0.00987346  0.010361207           12 
   63700   0.80118785   -6.5712908    7.5322159 0.0098537623  0.010362894           13 
   63800   0.83798227   -6.5629064    7.5377541 0.0098455512  0.010364389           17 
   63900   0.87748203   -6.5166108      7.60407 0.0099166275  0.010366437           19 
   64000   0.86406481    -6.609037    7.6155364  0.009916063  0.010368484           14 
   64100   0.82375707   -6.6311215    7.6018067  0.009882744  0.010370109            4 
   64200   0.77753528   -6.6309638    7.5972412 0.0098614241  0.010371336           12 
   64300   0.82075286   -6.5658499    7.6072258 0.0098590277  0.010372636            3 
   64400   0.84426424   -6.5311838     7.599185 0.0098333139  0.010374212            8 
   64500   0.81256946   -6.5655565    7.5969204 0.0098151426  0.010375389            9 
   64600   0.81729054   -6.5855231     7.602365 0.0098069723  0.010376306            9 
   64700   0.85309551   -6.5818507    7.6526659 0.0098566021  0.010377147           21 
   64800   0.84778272   -6.6147926    7.6442059 0.0098305116  0.010378122           20 
   64900   0.79880313   -6.6313758    7.6145468 0.0097772813  0.010378436           24 
   65000   0.83056418   -6.6656734      7.63646 0.0097903333  0.010378541           22 
   65100   0.81352292   -6.6163756    7.6765867 0.0098266598  0.010379247           10 
   65200   0.82137856   -6.5610736    7.6541116 0.0097828624  0.010379873            8 
   65300   0.87330814   -6.5492814    7.6355442  0.009744186  0.010380562           12 
   65400   0.84352043   -6.5997965    7.6953483 0.0098054896  0.010381374            8 
   65500   0.87472484   -6.5886695    7.7198863 0.0098217382  0.010382336           10 
   65600   0.83517975   -6.5633685    7.7389243 0.0098309505  0.010383421           14 
   65700   0.83127534   -6.5945121    7.7333231 0.0098088825  0.010384178           24 
   65800   0.82630086   -6.5845523    7.7447301  0.009808422  0.010384917            9 
   65900   0.84887458   -6.6011998    7.7774484 0.0098349119  0.010385642           20 
   66000   0.77427638   -6.5927783    7.8046461  0.009854351  0.010386619           23 
   66100   0.78042605   -6.5453301    7.8487028 0.0098949858  0.010387779           20 
   66200   0.83324238   -6.5555379    7.7984724 0.0098168081  0.010388952           16 
   66300   0.82114039   -6.5959306      7.77434  0.009771669  0.010389414            9 
   66400   0.80553773   -6.5406019    7.7657138 0.0097461267  0.010389458           12 
   66500   0.84951989   -6.5316173    7.7975625 0.0097713816  0.010389987            8 
   66600   0.81835395     -6.59913    7.8187479  0.009783218    0.0103901            4 
   66700   0.80646531   -6.5638145    7.8350593 0.0097889295  0.010390303           10 
   66800   0.88539694   -6.5955456     7.882118 0.0098329814  0.010390857            8 
   66900   0.83113981   -6.5884393    7.8837943 0.0098203715  0.010391463           17 
   67000   0.83928882   -6.6209405    7.9197039 0.0098503779  0.010392088           22 
   67100   0.83087395   -6.5576442    7.9286729 0.0098468366   0.01039281           17 
   67200   0.81791043   -6.5663735    7.9006627 0.0097974487  0.010393415           24 
   67300   0.81515145    -6.683918    7.9378152 0.0098288945  0.010393419           26 
   67400   0.83196976    -6.652205    7.9086873 0.0097782978  0.010393261           15 
   67500   0.81491007     -6.58971    7.9312756 0.0097916982  0.010393098           24 
   67600   0.81724016   -6.5953645    7.9290493  0.009774469  0.010393139           36 
   67700   0.80318826   -6.6014538    7.9206072 0.0097496395   0.01039302           38 
   67800   0.81230444   -6.6027946    7.9826725 0.0098115443  0.010393089           12 
   67900   0.85842034   -6.5727216    7.9962102 0.0098137091  0.010393202           19 
   68000   0.83690186   -6.5966266     8.002483 0.0098069644  0.010393586           24 
   68100   0.80811067   -6.5897364    7.9988236 0.0097880855  0.010393688           25 
   68200   0.83957249   -6.5854101    8.0563901 0.0098440738  0.010394024            9 
   68300   0.79791639   -6.5332016    8.0695413 0.0098457068   0.01039461            5 
   68400   0.80567184   -6.5756661    8.0361223 0.0097905973  0.010394939            7 
   68500   0.81040336    -6.531573    8.0095799 0.0097440144  0.010394816            8 
   68600   0.84591101   -6.5169031    8.0217985 0.0097446531  0.010394723            8 
   68700   0.84395754    -6.594477    8.0298148 0.0097401925  0.010394679            8 
   68800   0.82962751   -6.5848837    8.0386623 0.0097367517  0.010394501            9 
   68900   0.80078058   -6.5477674    8.1535475 0.0098615716  0.010394844           11 
   69000   0.81967635   -6.5171527    8.2177168 0.0099247787  0.010395885           11 
   69100   0.82652422   -6.5458037    8.2047052  0.009894724  0.010397146           10 
   69200   0.84682791   -6.6039292    8.1964354 0.0098704665  0.010397962            6 
   69300   0.83950167   -6.5470655    8.1818305 0.0098386609   0.01039862            6 
   69400   0.84145421   -6.5691837     8.150306 0.0097866306  0.010398898            6 
   69500   0.82040785   -6.5915978    8.1218704 0.0097384537   0.01039877            4 
   69600   0.82825609   -6.5539251    8.1572736 0.0097668505   0.01039848            7 
   69700   0.82840456   -6.5629938    8.2009803 0.0098050936  0.010398339            8 
   69800    0.8486243   -6.5186658    8.2194072 0.0098130458  0.010398267            4 
   69900   0.84516157   -6.5389287    8.2253149 0.0098060502  0.010398676            5 
   70000    0.8173223   -6.5556202    8.2167755 0.0097818756  0.010398665            4 
   70100   0.85727784   -6.5538448    8.1912684 0.0097375991  0.010398477            7 
   70200   0.84446933   -6.5644331    8.1971459 0.0097307049  0.010397913            4 
   70300   0.83412572   -6.5895052    8.2236375 0.0097482663  0.010397541            5 
   70400   0.78875987   -6.6180813    8.2374576 0.0097507783  0.010396863            8 
   70500   0.83708154   -6.6171543    8.3533978 0.0098739926  0.010396674            4 
   70600   0.81038774   -6.6003382     8.327348 0.0098292586  0.010396866            5 
   70700   0.77782404    -6.571839    8.2941348 0.0097762078  0.010396527            3 
   70800   0.83366087   -6.5510798    8.3091188 0.0097800362  0.010396461            5 
   70900   0.85050207   -6.5267632    8.3152439 0.0097734413  0.010396341            2 
   71000   0.82326215   -6.5054499    8.3060004 0.0097488267  0.010396124            3 
   71100   0.84033795   -6.5770547    8.2823244 0.0097073656  0.010395668            4 
   71200   0.80616338   -6.6312915    8.2935871 0.0097069137  0.010394966            2 
   71300   0.83940911   -6.5838586    8.3222608 0.0097268124  0.010394083            5 
   71400   0.81225458   -6.5379078     8.352558 0.0097485503  0.010393343            7 
   71500   0.79662934   -6.6196355     8.357342 0.0097404917   0.01039262            5 
   71600   0.79959126     -6.57605    8.4321393 0.0098139423  0.010391909            3 
   71700    0.8324423   -6.5997944    8.5071638 0.0098874521  0.010392061            5 
   71800   0.80236801   -6.6022411    8.4889291 0.0098525174  0.010392132            4 
   71900   0.82577044   -6.6114379    8.4736869 0.0098211484   0.01039218           10 
   72000   0.82002382   -6.5623627    8.4931229 0.0098300033  0.010392167            8 
   72100   0.83892191   -6.6018733    8.5196473 0.0098470263  0.010392445           10 
   72200   0.84272385   -6.6126103    8.4485215 0.0097512944  0.010392208            9 
   72300   0.85187565   -6.5840429    8.4290719 0.0097153894   0.01039176            9 
   72400   0.86330155   -6.5423226    8.4221484 0.0096940013  0.010391202            7 
   72500   0.83474964   -6.6150091    8.4034908 0.0096591847  0.010390371           10 
   72600   0.79716295   -6.6390466    8.4111575 0.0096546803  0.010388943           14 
   72700   0.79925184   -6.5760441    8.5129498 0.0097580808  0.010387924           10 
   72800   0.81792165   -6.6220979    8.5603623 0.0097989494  0.010387292           20 
   72900   0.86642264    -6.620399    8.5849169 0.0098135766  0.010386895           11 
   73000   0.83087611   -6.5324403    8.5490566  0.009759197  0.010386523            2 
   73100   0.80913382   -6.5549938    8.4966139 0.0096860623  0.010385555            2 
   73200   0.82698153   -6.5376495    8.4978938  0.009674287  0.010384224            4 
   73300   0.82777574   -6.4669098    8.5530041 0.0097237427   0.01038307            3 
   73400   0.83199558     -6.57215     8.556157 0.0097140746  0.010382251            4 
   73500   0.85342928   -6.5582547    8.5617904 0.0097072453  0.010381359            2 
   73600   0.83679174   -6.5866445    8.5679902 0.0097010758  0.010380605            3 
   73700   0.85124424   -6.6044262    8.5541748 0.0096722916  0.010379416            1 
   73800    0.8400069    -6.560741    8.5868712 0.0096961056  0.010378418            1 
   73900   0.79884181   -6.6005687    8.6269253 0.0097281521  0.010377484            4 
   74000   0.82775632   -6.5679776    8.6791574 0.0097738259  0.010376682            2 
   74100   0.83599541   -6.5287915    8.7026293 0.0097870324  0.010376383            1 
   74200   0.83793475   -6.5736734    8.7016956 0.0097727938  0.010376212            4 
   74300   0.80956503    -6.505746    8.7469834 0.0098104344   0.01037623            5 
   74400    0.8398795   -6.5576645    8.7785201 0.0098325717  0.010376435            8 
   74500   0.84736716   -6.5943987    8.7921731 0.0098346454  0.010376596            3 
   74600   0.83230701   -6.5653228    8.8218784 0.0098546452     0.010377            3 
   74700   0.81282286   -6.5910269    8.8419952 0.0098638947  0.010377247            4 
   74800    0.8268952   -6.6179619    8.8323677 0.0098399818  0.010377304            3 
   74900   0.80509412   -6.5853033    8.8340103 0.0098286718  0.010377092            4 
   75000   0.77993313   -6.6122913    8.8286327 0.0098095918  0.010376719            5 
   75100    0.8343756   -6.5968997    8.8480698 0.0098180978  0.010376638            6 
   75200    0.8158917   -6.5956898    8.8368441  0.009792602   0.01037652           16 
   75300   0.79217961    -6.640735     8.793173 0.0097312671  0.010376041            5 
   75400   0.82405623   -6.5985715    8.8755167 0.0098093686  0.010375768           14 
   75500   0.83507472   -6.5996835    8.8587761 0.0097778985  0.010375604            4 
   75600   0.82456415   -6.5766222    8.8731362 0.0097807938   0.01037521            7 
   75700    0.8371852   -6.6138134    8.8555113 0.0097484712  0.010374652            9 
   75800   0.82267942   -6.6366654    8.8602172 0.0097407841   0.01037415            3 
   75900    0.7968752    -6.610754    8.9572322 0.0098344666   0.01037375            2 
   76000   0.82106831   -6.6164223    9.0188587 0.0098890994   0.01037387            3 
   76100    0.8145631   -6.6580391    9.0295031 0.0098877607  0.010374086            8 
   76200   0.79246123    -6.568347    8.9590761 0.0097977647  0.010374056            2 
   76300   0.85317581   -6.6184994    8.9633141 0.0097895522  0.010373828            2 
   76400   0.82450742   -6.6136444    8.9610356 0.0097742535  0.010373582            4 
   76500   0.81340902   -6.6760104    8.9935569 0.0097969029  0.010373165            3 
   76600   0.83725499   -6.6090724    9.0032593 0.0097946684  0.010372735            9 
   76700    0.8338093   -6.6101133    9.0090859 0.0097882288  0.010372472            9 
   76800   0.82096948   -6.6101847    9.0575081 0.0098280252  0.010372375            7 
   76900   0.85651748   -6.5863879    9.1461814 0.0099113365  0.010372652           10 
   77000   0.83074062   -6.6286197    9.1536028 0.0099064964  0.010373062            9 
   77100   0.80485487    -6.637313     9.131155  0.009869385  0.010373026           19 
   77200   0.82103768   -6.5825035    9.1019123 0.0098250348  0.010372926            9 
   77300   0.87889634   -6.5730996    9.1268741 0.0098392347  0.010372867           12 
   77400   0.84407136   -6.5417884    9.0934126 0.0097904958  0.010372656            7 
   77500    0.8347239   -6.5612251    9.0791869 0.0097625665   0.01037227            6 
   77600   0.83306734    -6.644578    9.1227772 0.0097967967  0.010371947            6 
   77700   0.81001541   -6.6184196    9.0980168 0.0097576327  0.010371518            7 
   77800   0.85060804   -6.6157343    9.1714275 0.0098237226   0.01037132            6 
   77900   0.83176254   -6.6016409    9.2186051   0.00986158  0.010371453            9 
   78000   0.86534896   -6.6457072    9.2009617 0.0098300872  0.010371576            9 
[...]
   82800   0.85956585   -6.5601923    9.4278566 0.0094885835  0.010277198            4 
   82900   0.85387644   -6.5803317    9.4137251 0.0094629323  0.010274589            4 
   83000   0.83033325   -6.5523466    9.3775886 0.0094152496   0.01027173            8 
   83100   0.81375155   -6.6136426    9.3260626 0.0093522488   0.01026852            4 
   83200   0.82372151   -6.6228816    9.3256793 0.0093406243  0.010264997            5 
   83300   0.85810915   -6.6626582    9.3942975 0.0093980566  0.010261538           12 
   83400   0.87183251   -6.6588087    9.4116757 0.0094041523  0.010258339           12 
   83500    0.8223157   -6.6163627    9.4561771 0.0094373024  0.010255316            8 
   83600   0.85768328   -6.5953353    9.4765641 0.0094463357  0.010252592            9 
   83700   0.80076842   -6.6275598    9.4597045 0.0094182641  0.010249844           11 
   83800   0.85486046   -6.6590611    9.4859499 0.0094331244  0.010246935            5 
   83900   0.85816126   -6.6006052     9.545888 0.0094814143  0.010244349            3 
   84000   0.79680052     -6.59914    9.5084994 0.0094330351  0.010241722           10 
   84100   0.81550451   -6.6414564    9.5098185 0.0094231257  0.010238737            3 
   84200   0.83225436   -6.6621592    9.4945958 0.0093968683  0.010235559            7 
   84300   0.82587404   -6.5817015    9.4770522 0.0093683789  0.010232242            3 
   84400   0.85047095   -6.5851498     9.512136 0.0093919193  0.010229125            5 
   84500   0.86140634    -6.679463    9.5518496   0.00941997  0.010226154            3 
   84600   0.83990104   -6.6462017    9.5962624 0.0094525831   0.01022351            2 
   84700   0.85664256    -6.599237    9.6292403 0.0094738688   0.01022094            3 
   84800   0.86172774   -6.6560628    9.6620607 0.0094949495  0.010218615            9 
   84900    0.8188301   -6.6227091    9.6746989 0.0094961708  0.010216353           12 
   85000   0.84763939   -6.5551089    9.6563005 0.0094669612  0.010214136           12 
   85100   0.84668384   -6.6023674    9.6494454 0.0094491239  0.010211947            5 
   85200   0.81633777   -6.6084547     9.633979 0.0094229059  0.010209403            3 
   85300    0.8213601   -6.5545634    9.6667203 0.0094438455  0.010207024            9 
   85400    0.8656764   -6.6365164    9.6908186 0.0094563023  0.010204586            8 
   85500   0.84532694   -6.6257825     9.665182 0.0094202553  0.010201932           10 
   85600   0.83896162   -6.6289708     9.660324 0.0094045209  0.010199215           10 
   85700   0.81351391   -6.6652837    9.6849828  0.009417525  0.010196238           15 
   85800   0.78111397   -6.6408193     9.722121 0.0094426194   0.01019334           15 
   85900   0.83805197   -6.5914903    9.7432306 0.0094521057  0.010190804           17 
   86000   0.82444119   -6.5354539    9.7158402 0.0094145738  0.010188321           16 
   86100   0.85139712   -6.5183278    9.7355278 0.0094226943  0.010185883           14 
   86200   0.88092311   -6.5795452    9.7131157 0.0093900963  0.010183418           23 
   86300   0.83271418   -6.5981098    9.7231974 0.0093889507  0.010180714           27 
   86400   0.81385093   -6.6412944    9.7599865 0.0094135672  0.010178046           23 
   86500   0.79522326   -6.6104983    9.7603275  0.009403013  0.010175249           29 
   86600    0.8018965   -6.5826427    9.7905211 0.0094212096  0.010172519           10 
   86700   0.82374594   -6.5987442    9.7862122 0.0094062016  0.010169856            8 
   86800   0.82807302   -6.5708475    9.7767567 0.0093862871  0.010167051           10 
   86900   0.82660305   -6.6301864    9.7669117 0.0093660449  0.010164162           10 
   87000   0.83631782   -6.5896719    9.8432146 0.0094283664  0.010161389            6 
   87100   0.86066737   -6.6398032    9.8077951 0.0093836539  0.010158508           10 
   87200   0.83280844   -6.5991762    9.7525799  0.009320126  0.010155438           21 
   87300   0.84544756   -6.6328348    9.7498607 0.0093068543  0.010152171           13 
   87400   0.80662196   -6.5916588    9.8154561 0.0093587491  0.010149024            7 
   87500    0.8535197   -6.5740084    9.8170423  0.009349564  0.010145931            9 
   87600   0.81517784   -6.6220162     9.859241 0.0093790344   0.01014314           12 
   87700   0.79915861    -6.618661    9.8930264 0.0094004431  0.010140394            5 
   87800   0.84769085   -6.6129705    9.9145248 0.0094101411  0.010137815            7 
   87900   0.81625789   -6.6122519    9.9365319 0.0094202994  0.010135334            5 
   88000   0.86118649   -6.6017338    10.000736 0.0094703937  0.010133119            4 
   88100   0.83055472   -6.6013064    10.017193 0.0094752111  0.010131087            9 
   88200   0.78931219   -6.6049871    10.027053 0.0094737838  0.010129077            5 
   88300   0.80968049   -6.7010394      10.0344 0.0094699882  0.010126891            6 
   88400   0.80591304   -6.6278789    10.053166 0.0094769661  0.010124747           12 
   88500   0.84139404   -6.5865352    10.042629 0.0094563365  0.010122718            9 
   88600   0.80432462   -6.5578276    10.003441 0.0094088042  0.010120607            6 
   88700   0.82453479   -6.5929275    10.030636 0.0094237467   0.01011834            5 
   88800     0.850862   -6.5672823    10.042854 0.0094246003  0.010116155            7 
   88900   0.81351976     -6.59125    10.137685 0.0095028918  0.010114133            5 
   89000   0.84788058   -6.5889596    10.186546 0.0095379648  0.010112426            4 
   89100   0.81482719   -6.5988059     10.18113 0.0095221942  0.010110874            9 
   89200   0.82505965   -6.5752381    10.162882  0.009494471  0.010109228           10 
   89300   0.83597337   -6.5770163    10.153057 0.0094746709  0.010107445           10 
   89400       0.8227   -6.5750203    10.215046  0.009521855  0.010105803           12 
   89500   0.82850325   -6.5804949    10.193538 0.0094911894  0.010104038            6 
   89600   0.83519144    -6.585021     10.23089 0.0095153362  0.010102377            8 
   89700    0.8221381   -6.6515287    10.202604 0.0094784499  0.010100586            7 
   89800   0.73067748    -6.543098    10.143418 0.0094129716  0.010098329            6 
   89900   0.83067666   -6.6150516    10.210712 0.0094648795  0.010096197            6 
   90000   0.84649069   -6.6088439    10.302972 0.0095397891  0.010094442            3 
   90100   0.80977808    -6.652785    10.293054 0.0095200275  0.010092894            4 
   90200    0.8323742   -6.6791664    10.385195 0.0095945998   0.01009148            9 
   90300   0.82672378   -6.5831877    10.361961 0.0095625332  0.010090227            5 
   90400   0.82938793   -6.5825348    10.442069  0.009625801  0.010089302            3 
   90500   0.82967167   -6.5289697    10.471523  0.009642286  0.010088557            7 
   90600   0.84299085   -6.6562139    10.459757 0.0096208214  0.010087753            9 
   90700   0.83206777   -6.5893295    10.491661 0.0096395271  0.010086957            4 
   90800   0.83647812   -6.5725227      10.5716 0.0097022757   0.01008663            3 
   90900   0.85910102   -6.5391104    10.647383 0.0097610772  0.010086839            4 
   91000    0.8352276   -6.5450045    10.644929 0.0097481035  0.010087258            4 
   91100   0.84837747   -6.5934706    10.677152 0.0097668789  0.010087707            4 
   91200   0.83530678   -6.5997332    10.720312 0.0097956068  0.010088326            7 
   91300   0.85582784   -6.5636426    10.796975 0.0098548511  0.010089087            5 
   91400   0.82269946   -6.5838967    10.768655 0.0098182488  0.010089919            5 
   91500   0.80733156   -6.5860888    10.759538 0.0097992148  0.010090409            7 
   91600   0.84391979   -6.5440776     10.71121 0.0097445505  0.010090851            4 
   91700   0.83591747   -6.5014093    10.675541 0.0097015096  0.010091129            5 
   91800   0.83830509   -6.5731188    10.678861 0.0096939551  0.010091315            7 
   91900   0.88964881   -6.6035244    10.733729 0.0097331602  0.010091303            5 
   92000   0.83315991   -6.5588328    10.779985 0.0097644795  0.010091575            4 
   92100   0.81408927   -6.5762705    10.803656 0.0097752953  0.010091728            4 
   92200   0.85111662   -6.6495258    10.801661 0.0097628891  0.010091808            2 
   92300   0.78804853   -6.6055913    10.809219 0.0097591357  0.010091733            6 
   92400   0.81290387   -6.5457158    10.851678 0.0097868665  0.010092028            3 
   92500   0.84756015   -6.5366858    10.800259 0.0097299626    0.0100923            2 
   92600   0.81483549   -6.5904831    10.810519 0.0097286891  0.010092329            5 
   92700   0.84882038   -6.6289611    10.817194 0.0097241941  0.010092253            8 
   92800   0.80365362    -6.572287    10.849885 0.0097430721  0.010092199            6 
   92900   0.85769787    -6.561415       10.834 0.0097183351  0.010092199            8 
   93000   0.83171723   -6.5633538    10.792018 0.0096702666  0.010092073            8 
   93100   0.86052482   -6.6158414    10.822559 0.0096872171  0.010091929           11 
   93200   0.85803169   -6.5394819    10.918454 0.0097625664  0.010091945           10 
   93300   0.81454945   -6.5600006    10.871494 0.0097101589  0.010091974           13 
   93400   0.80647078   -6.5689651    10.924587 0.0097471332  0.010091907           12 
   93500   0.87121945   -6.5631648    10.988765 0.0097939081  0.010092078           13 
   93600   0.83484113   -6.5906118    10.920114 0.0097223238  0.010092179            7 
   93700   0.83953249   -6.6369638    10.889354 0.0096845912  0.010091874            4 
   93800    0.8243615   -6.6127558    10.821794 0.0096142447  0.010091312           11 
   93900   0.81897561   -6.6476977    10.815072 0.0095980404  0.010090555           12 
   94000   0.83366582    -6.608567    10.885385  0.009650164  0.010089877            4 
   94100   0.81663407   -6.5839291    10.868754  0.009625181  0.010089118            3 
   94200   0.85020256   -6.6195383    10.909709  0.009651193   0.01008851            6 
   94300   0.80256803   -6.5653656    10.938116 0.0096660624  0.010087996           10 
   94400   0.83128605   -6.6122117    10.941055 0.0096584171  0.010087452           10 
   94500   0.81803821   -6.6033229    11.018291 0.0097163063  0.010086889            2 
   94600   0.83845481   -6.6381724      11.0226  0.009709831  0.010086648            7 
   94700   0.81494506   -6.5134092    11.015983 0.0096937544  0.010086273            4 
   94800   0.82909789   -6.5392605    11.070722 0.0097316474  0.010086095            6 
   94900   0.81662633   -6.5806969    11.084427 0.0097334274  0.010086005            5 
   95000   0.82191102   -6.6198394    11.094231 0.0097317813  0.010085878            4 
   95100   0.82111202   -6.6369384    11.095148 0.0097223519  0.010085698            7 
   95200   0.82555081   -6.6015704    11.127296 0.0097402802  0.010085511            6 
   95300    0.8251136   -6.5881046     11.14353 0.0097442546  0.010085481            8 
   95400   0.80010454   -6.5728545    11.089966 0.0096872515  0.010085342            3 
   95500   0.87352645   -6.6090099    11.119925 0.0097032504  0.010085099            6 
   95600   0.82408566   -6.6302143    11.088421 0.0096656391  0.010084703           16 
   95700   0.81540913    -6.624014    11.134034  0.009695258  0.010084195            8 
   95800   0.81212311   -6.6563562    11.187418 0.0097315741  0.010083834            9 
   95900    0.7864329   -6.6954521    11.160295 0.0096978578  0.010083261           12 
   96000   0.79425148   -6.6269747    11.223188 0.0097423508  0.010082857            5 
   96100   0.84143923   -6.6155597    11.201701 0.0097135802  0.010082619           16 
   96200   0.80976494   -6.6085082    11.187745  0.009691394   0.01008244            3 
   96300   0.81303162   -6.5703054    11.184555 0.0096785696  0.010082118            4 
   96400   0.83852585   -6.5762483    11.208448  0.009689184  0.010081919            7 
   96500    0.8099051   -6.6128119    11.220274 0.0096893557  0.010081661            5 
   96600   0.82190626    -6.667721    11.208043 0.0096687738  0.010081166            4 
   96700   0.84435656   -6.5944849    11.234358  0.009681453  0.010080761            3 
   96800   0.81060844   -6.5855015    11.215179 0.0096549402  0.010080359           11 
   96900   0.81367797   -6.6700136     11.20381 0.0096351996  0.010079701            3 
   97000   0.83802829   -6.6501298     11.25406  0.009668436  0.010079153            7 
   97100   0.80441006   -6.6303853    11.276996 0.0096781635  0.010078657            5 
   97200   0.81725594   -6.6678501    11.334677 0.0097176587  0.010078041            5 
   97300    0.8110825   -6.5725842    11.354397  0.009724561  0.010077672            2 
   97400   0.82109787    -6.532663    11.326702 0.0096908812  0.010077336            4 
   97500   0.80787079   -6.5501403    11.356188 0.0097061436  0.010076954            6 
   97600   0.82354034   -6.6140242    11.392655 0.0097273351   0.01007668            8 
   97700   0.82002673   -6.6424422    11.416112 0.0097373869  0.010076498            4 
   97800   0.83006697   -6.5592866    11.398325 0.0097122744  0.010076233            8 
   97900   0.80133852   -6.5315198    11.369134 0.0096775061  0.010075852            2 
   98000   0.82118246   -6.6045956    11.347393 0.0096491435  0.010075264           11 
   98100   0.87029979   -6.5783285    11.346096 0.0096382055  0.010074528            9 
   98200   0.82880408   -6.5050884    11.367169 0.0096462735  0.010073904            3 
   98300   0.79990411   -6.5744903    11.385108 0.0096516679  0.010073213           10 
   98400   0.83453666   -6.6706564    11.389724 0.0096457685  0.010072435            2 
   98500   0.82392935   -6.6720179     11.34557  0.009598621  0.010071554            3 
   98600   0.84984487    -6.597718    11.403107 0.0096375144  0.010070775            3 
   98700   0.81459281   -6.6017679    11.390028 0.0096167073  0.010070021            4 
   98800   0.84952546   -6.6347026    11.428851 0.0096397192  0.010069423            3 
   98900    0.8146355    -6.589252     11.45736 0.0096539935  0.010068963            5 
   99000   0.84775256   -6.5508181    11.548766 0.0097211838  0.010068681            2 
   99100   0.84967486    -6.618642    11.530181 0.0096957454   0.01006847            8 
   99200   0.81389241   -6.5848615    11.524717 0.0096813817  0.010068159            2 
   99300   0.81812067   -6.6366368    11.505566 0.0096555607  0.010067863            4 
   99400   0.86759719   -6.6258283    11.548083  0.009681491   0.01006758            3 
   99500   0.86302855   -6.5543079       11.544 0.0096683416  0.010067422            6 
   99600   0.88384638    -6.666102    11.516654 0.0096357549  0.010067019           10 
   99700   0.81199626   -6.6325649    11.546923 0.0096513898   0.01006627           10 
   99800   0.82821199   -6.5871679    11.523975 0.0096225575  0.010065507           12 
   99900   0.83501051   -6.6182073    11.564296 0.0096465598  0.010064784           10 
  100000   0.83559279   -6.6072217    11.555036 0.0096291966   0.01006417            4 
  100100   0.83002309   -6.6463914    11.490275 0.0095656633  0.010063397            7 
  100200   0.84939508   -6.5814363    11.527436 0.0095870222  0.010062559            7 
  100300   0.84490822   -6.5847463    11.522698 0.0095735279  0.010061621            9 
  100400   0.85540108   -6.7009063    11.530339 0.0095703345  0.010060609           17 
  100500   0.79830287   -6.6745802    11.629108 0.0096427093   0.01005955           18 
  100600   0.81799834   -6.6379497    11.580664 0.0095929952  0.010058668           17 
  100700   0.83617511   -6.5781245     11.58209 0.0095846487  0.010057621           11 
  100800   0.87224186   -6.5660974    11.599224 0.0095893054  0.010056784            7 
  100900   0.82606228   -6.5577666    11.591451  0.009573382  0.010055927            6 
  101000   0.81912815   -6.5853247    11.679513 0.0096365617  0.010055151            6 
  101100   0.84838573    -6.546539    11.693383 0.0096384631  0.010054566            2 
  101200   0.86072312   -6.5377194     11.77485 0.0096960225  0.010054353           10 
  101300   0.80986823   -6.5231865    11.737854 0.0096560165  0.010054013            7 
  101400   0.85175157   -6.5461816    11.810877 0.0097065064  0.010053735            7 
  101500   0.82457731   -6.5635351    11.824388 0.0097080365   0.01005352            5 
  101600   0.82081571   -6.6164929    11.772652 0.0096560466  0.010053063           18 
  101700    0.8505656   -6.5932539    11.772652 0.0096465522  0.010052431            6 
  101800   0.85740506   -6.5660894    11.827113 0.0096816575  0.010052042            8 
  101900   0.81933276   -6.5931734     11.80021 0.0096501552   0.01005167           31 
  102000    0.8792798   -6.6114561    11.778648 0.0096230784  0.010051064           30 
  102100    0.8647106    -6.595921    11.861904 0.0096816058  0.010050667           24 
  102200   0.83395461   -6.6275418    11.852709 0.0096646353  0.010050337           19 
  102300   0.80054362   -6.6368959    11.795966 0.0096089651   0.01004973           47 
  102400   0.83852791   -6.6359546    11.790504 0.0095951367  0.010048977           31 
  102500   0.82125071   -6.6219943    11.824303 0.0096132541  0.010048174           20 
  102600   0.84634052   -6.5844955    11.841666 0.0096179874  0.010047467           10 
  102700   0.78025318   -6.6086268    11.861442  0.009624669  0.010046687            4 
  102800   0.79507232   -6.6253271    11.922775  0.009665025  0.010045874            3 
  102900   0.82392543   -6.6230683    11.908691 0.0096442262  0.010045275           12 
  103000   0.84251839   -6.6245214    11.906353 0.0096329719  0.010044713           19 
  103100   0.86823752   -6.6351188    11.885744 0.0096069709  0.010044046           19 
  103200   0.89583784   -6.6209573    11.856229 0.0095738286  0.010043312           18 
  103300   0.85342531   -6.6126585    11.884521 0.0095873834  0.010042583           18 
  103400   0.83139158   -6.6561279    11.813308 0.0095207189  0.010041605           31 
  103500   0.86882664   -6.6474344     11.89504 0.0095773265  0.010040616           37 
  103600    0.8223264   -6.6242259    11.955652 0.0096168374  0.010039777           14 
  103700   0.83675754   -6.6404528    12.003327 0.0096458754  0.010039062           11 
  103800   0.80569891   -6.5859289    11.998607 0.0096327929  0.010038364            9 
  103900    0.8289756   -6.6201231    11.934858 0.0095723919  0.010037575            3 
  104000   0.88757853   -6.6831636    12.019249 0.0096308083  0.010036813            5 
Loop time of 191.596 on 12 procs for 100000 steps with 864 atoms

Performance: 90189.724 tau/day, 521.931 timesteps/s
99.4% CPU use with 12 MPI tasks x no OpenMP threads

MPI task timing breakdown:
Section |  min time  |  avg time  |  max time  |%varavg| %total
---------------------------------------------------------------
Pair    | 9.4994     | 10.351     | 11.164     |  15.8 |  5.40
Neigh   | 0.93661    | 0.96836    | 1.0089     |   2.4 |  0.51
Comm    | 7.5329     | 8.5834     | 9.4903     |  19.6 |  4.48
Output  | 1.9985     | 1.9994     | 2.0064     |   0.2 |  1.04
Modify  | 167.25     | 167.8      | 168.64     |   3.2 | 87.58
Other   |            | 1.892      |            |       |  0.99

Nlocal:        72.0000 ave          74 max          68 min
Histogram: 1 0 0 2 0 0 3 0 4 2
Nghost:        1568.58 ave        1589 max        1554 min
Histogram: 1 2 3 0 2 2 0 0 0 2
Neighs:        8240.75 ave        8649 max        7361 min
Histogram: 1 0 0 0 1 2 1 2 2 3
FullNghs:      16485.8 ave       16883 max       15598 min
Histogram: 1 0 2 0 0 0 1 2 1 5

Total # of neighbors = 197829
Ave neighs/atom = 228.96875
Neighbor list builds = 5084
Dangerous builds = 0

#clear
#
#next RN
#
#jump SELF



Total wall time: 0:03:12
