
units lj                  # Use reduced LJ style units
atom_style atomic         # Uncharged point particles
atom_modify map hash      # Needed for indexing of clusters etc
                          # Used to be able to find where atoms are in relation to each other.

# Define a lattice with which to populate the simulation cell. With units
# set to 'lj' the second argument to the lattice command is the reduced
# density rho* and the spacings are multiples of that required to acheive
# that density. Also define a simulation cell called 'box' in lattice units
# and fill it with atoms. Here we're creating a box which is ten lattice
# constants in each direction.
lattice fcc 1.0 spacing 1 1 1                 # All equal sizes - gives the right reduced density.
Lattice spacing in x,y,z = 1.5874011 1.5874011 1.5874011

region box block 0 6 0 6 0 6 units lattice # Defines a region, "box", in lattice units
create_box 1 box                              # Creates a simulation box as specified above,
Created orthogonal box = (0.0000000 0.0000000 0.0000000) to (9.5244063 9.5244063 9.5244063)
  2 by 2 by 3 MPI processor grid
                                              # with one type of atom
create_atoms 1 box                            # Creates particles on lattice points
Created 864 atoms
  using lattice units in orthogonal box = (0.0000000 0.0000000 0.0000000) to (9.5244063 9.5244063 9.5244063)
  create_atoms CPU = 0.001 seconds


# Set the mass of the first (and only) atom type.
mass 1 1.0

# Lennard-Jones interactions between particles, 3.5 sigma cut-off. Apply
# long range tail corrections to energy and pressure and set all coefficients
# to unity since we work in reduced units here. Note that this doesn't shift
# the potential such that it goes to zero at the cutoff. That would require
# pair_modify('shift', 'yes').
pair_style lj/cut  3.5      # non-GPU version
pair_modify tail  yes
pair_coeff 1  1  1.0  1.0   # Intearaction between 1 and 1 set with epsilon = 1 and sigma = 1

write_data data.*
System init for write_data ...
Neighbor list info ...
  update every 1 steps, delay 10 steps, check yes
  max neighbors/atom: 2000, page size: 100000
  master list distance cutoff = 3.8
  ghost atom cutoff = 3.8
  binsize = 1.9, bins = 6 6 6
  1 neighbor lists, perpetual/occasional/extra = 1 0 0
  (1) pair lj/cut, perpetual
      attributes: half, newton on
      pair build: half/bin/atomonly/newton
      stencil: half/bin/3d
      bin: standard

#############################
#   M E L T   S Y S T E M   #
#############################

velocity all create 2.4 2750902 mom yes dist gaussian # Assign velocities
                                                    # Temperature 2.4, random number seed, zero linear momentum
						                                                        # Gaussian distribution

timestep 0.002   # simulation timestep
thermo 100       # output thermodynamic data every 100 steps

# Define a fix  in this case with index 1 applied to all
# particles in the simulation. This fix is for simulations
# in the anisotropic NPT ensemble. Note that we use the MTK
# correction.
fix 1 all npt temp 2.4 2.4 0.1 iso 5.68 5.68 0.5 mtk yes tchain 5 pchain 5 # Use NPT ensemble
                                                                         # Set temperature and pressure and damping
                                                                         # Numbers of thermostats in chain and in barostat
run 1000         # run for 10000 steps
Per MPI rank memory allocation (min/avg/max) = 3.633 | 3.633 | 3.634 Mbytes
Step Temp E_pair E_mol TotEng Press Volume 
       0          2.4   -8.3859253            0    -4.790092     -2.24275          864 
     100    1.3007594   -6.4407842            0   -4.4919034    5.3582762    891.69205 
     200    1.5828213   -6.0796178            0   -3.7081338    6.4338598    907.46239 
     300    1.7629056     -5.73851            0   -3.0972122    5.5953229    954.02439 
     400    1.8733232   -5.2785237            0   -2.4717912    6.0585808    994.36537 
     500      2.02574   -4.9360708            0   -1.9009777    5.7478153    1042.8978 
     600    2.2112838   -4.6895875            0   -1.3765009    5.7138268    1079.0368 
     700    2.3146746   -4.4629638            0  -0.99497044    5.6088298    1118.0222 
     800    2.4734008     -4.39503            0   -0.6892229    5.7937797    1123.7282 
     900    2.4206618   -4.2767239            0  -0.64993368    5.5531987    1146.9555 
    1000    2.3618098   -4.2459295            0  -0.70731524    5.7000582    1143.3852 
Loop time of 0.182539 on 12 procs for 1000 steps with 864 atoms

Performance: 946646.049 tau/day, 5478.276 timesteps/s
99.8% CPU use with 12 MPI tasks x no OpenMP threads

MPI task timing breakdown:
Section |  min time  |  avg time  |  max time  |%varavg| %total
---------------------------------------------------------------
Pair    | 0.066751   | 0.076797   | 0.099182   |   3.6 | 42.07
Neigh   | 0.01175    | 0.012837   | 0.015929   |   1.1 |  7.03
Comm    | 0.049075   | 0.074827   | 0.085528   |   4.2 | 40.99
Output  | 0.00021121 | 0.00021712 | 0.00025141 |   0.0 |  0.12
Modify  | 0.015659   | 0.016186   | 0.016618   |   0.3 |  8.87
Other   |            | 0.001676   |            |       |  0.92

Nlocal:        72.0000 ave          80 max          66 min
Histogram: 2 1 2 2 1 0 2 0 0 2
Nghost:        1314.75 ave        1327 max        1295 min
Histogram: 1 0 0 2 3 0 0 1 2 3
Neighs:        6211.67 ave        7136 max        5326 min
Histogram: 2 0 0 2 1 4 1 0 0 2

Total # of neighbors = 74540
Ave neighs/atom = 86.273148
Neighbor list builds = 80
Dangerous builds = 2

# Equilibrate just above the melting temperature to avoid step fn in T

fix 1 all npt temp 1.25 1.25 0.1 iso 5.68 5.68 0.5 mtk yes tchain 5 pchain 5
run 1000
Per MPI rank memory allocation (min/avg/max) = 3.634 | 3.634 | 3.634 Mbytes
Step Temp E_pair E_mol TotEng Press Volume 
    1000    2.3618098   -4.2459295            0  -0.70731524    5.7000582    1143.3852 
    1100    1.8617945   -4.5967525            0    -1.807293    5.9593679    1083.5566 
    1200      1.66126   -5.0091582            0   -2.5201524    5.9308167    1028.0056 
    1300    1.4533368   -5.3154554            0   -3.1379734    5.5185254    997.93023 
    1400    1.3100587   -5.5224566            0    -3.559643    5.2858775     978.0358 
    1500    1.3306301   -5.7450087            0   -3.7513736    5.2687861    956.68836 
    1600    1.2302857    -5.777427            0   -3.9341343     5.385203    950.58576 
    1700    1.2545134   -5.8251615            0   -3.9455694    5.6370291    940.07281 
    1800    1.2669685   -5.8434457            0   -3.9451925    6.1076728    931.13358 
    1900    1.2975362   -5.8185374            0   -3.8744858    5.5765884    942.23221 
    2000    1.2225624   -5.8503078            0   -4.0185867    5.1330896    948.19804 
Loop time of 0.159743 on 12 procs for 1000 steps with 864 atoms

Performance: 1081739.083 tau/day, 6260.064 timesteps/s
99.9% CPU use with 12 MPI tasks x no OpenMP threads

MPI task timing breakdown:
Section |  min time  |  avg time  |  max time  |%varavg| %total
---------------------------------------------------------------
Pair    | 0.069957   | 0.07604    | 0.083536   |   1.5 | 47.60
Neigh   | 0.0098517  | 0.01049    | 0.011512   |   0.5 |  6.57
Comm    | 0.047397   | 0.055888   | 0.062132   |   1.9 | 34.99
Output  | 0.00018461 | 0.00018799 | 0.00020912 |   0.0 |  0.12
Modify  | 0.015009   | 0.01529    | 0.015647   |   0.2 |  9.57
Other   |            | 0.001847   |            |       |  1.16

Nlocal:        72.0000 ave          79 max          65 min
Histogram: 1 1 0 4 0 1 1 3 0 1
Nghost:        1466.08 ave        1476 max        1447 min
Histogram: 1 1 0 0 2 0 0 4 1 3
Neighs:        7466.67 ave        8131 max        6694 min
Histogram: 1 0 2 0 3 1 3 0 0 2

Total # of neighbors = 89600
Ave neighs/atom = 103.70370
Neighbor list builds = 67
Dangerous builds = 0


# Small amount of linear quench

fix 1 all npt temp 1.25 ${temp} 0.1 iso 5.68 5.68 0.5 mtk yes tchain 5 pchain 5
fix 1 all npt temp 1.25 0.8 0.1 iso 5.68 5.68 0.5 mtk yes tchain 5 pchain 5
run 2000
Per MPI rank memory allocation (min/avg/max) = 3.634 | 3.634 | 3.634 Mbytes
Step Temp E_pair E_mol TotEng Press Volume 
    2000    1.2225624   -5.8503078            0   -4.0185867    5.1330896    948.19804 
    2100    1.2481021   -5.8642678            0   -3.9942815    5.4085296    941.25414 
    2200    1.2220257   -5.9108989            0    -4.079982    5.7908393    929.20487 
    2300    1.1720549   -5.9267472            0   -4.1706997    6.2982311    918.63942 
    2400    1.1748798   -5.9853523            0   -4.2250723    5.9050223    920.21389 
    2500    1.1109952   -5.9945741            0     -4.33001    5.7756929    919.50062 
    2600    1.1098904   -6.0527597            0   -4.3898511    5.5335029    918.92264 
    2700     1.105035   -6.0634531            0   -4.4078191    5.5771105    917.57194 
    2800    1.0864859   -6.1525353            0   -4.5246927    5.4492528    912.68726 
    2900     1.079208   -6.1650478            0   -4.5481094    5.8331636    904.67854 
    3000   0.99638259   -6.1505008            0   -4.6576568    5.9619825    902.30994 
    3100    1.0457766   -6.1830489            0   -4.6161996    5.9817272    899.57016 
    3200   0.98875057   -6.2464184            0   -4.7650092    6.1375829    891.58045 
    3300   0.97592557   -6.3078752            0   -4.8456812    5.8883628    891.08373 
    3400   0.93017193    -6.366007            0    -4.972364    5.5278011    890.84676 
    3500   0.94622764   -6.3921465            0   -4.9744478    5.4900286    889.71724 
    3600   0.88411416   -6.4208482            0   -5.0962119    5.4098168    887.33455 
    3700   0.85675706   -6.4855502            0   -5.2019021    4.9987006     887.9039 
    3800   0.85064385   -6.5570503            0   -5.2825613    4.8186506    885.15839 
    3900    0.8683218   -6.5807044            0   -5.2797292    5.1664661    877.73267 
    4000   0.82582987   -6.5959919            0   -5.3586809    5.4985919    871.85226 
Loop time of 0.33109 on 12 procs for 2000 steps with 864 atoms

Performance: 1043825.121 tau/day, 6040.655 timesteps/s
99.9% CPU use with 12 MPI tasks x no OpenMP threads

MPI task timing breakdown:
Section |  min time  |  avg time  |  max time  |%varavg| %total
---------------------------------------------------------------
Pair    | 0.15587    | 0.16785    | 0.18822    |   2.0 | 50.70
Neigh   | 0.017586   | 0.018449   | 0.020621   |   0.6 |  5.57
Comm    | 0.088296   | 0.1107     | 0.12278    |   2.6 | 33.44
Output  | 0.00039314 | 0.00040024 | 0.00044979 |   0.0 |  0.12
Modify  | 0.028725   | 0.029361   | 0.030076   |   0.2 |  8.87
Other   |            | 0.004321   |            |       |  1.31

Nlocal:        72.0000 ave          77 max          67 min
Histogram: 1 1 0 3 0 3 0 1 0 3
Nghost:        1564.67 ave        1580 max        1544 min
Histogram: 1 0 0 2 2 2 0 2 1 2
Neighs:        8190.00 ave        9360 max        7355 min
Histogram: 4 1 0 0 2 1 1 2 0 1

Total # of neighbors = 98280
Ave neighs/atom = 113.75000
Neighbor list builds = 113
Dangerous builds = 0

#############################
# F R E E Z E  S Y S T E M  #
#############################

# Define solid atoms. This closely follows ten Wolde  Ruiz-Montero and Frenkel  Faraday Discuss  1996  104  93-110
# Compute components of the per-atom q6 vector
compute q6 all orientorder/atom degrees 1 6 components 6 nnn NULL cutoff 1.3 # compute the Q6 parameter.
                                                                             # Use all neighbours within 1.3 unit cell.

# get number of connections
compute coord_number all coord/atom orientorder q6 0.5

# An atom is solid if it has 8 or more connections (of a possible 14)
variable is_solid atom c_coord_number>=8
group solid dynamic all var is_solid    # Must be dynamic to update
dynamic group solid defined

# do clustering
compute cluster solid cluster/atom 1.3 # Create a cluster where all atoms within are solid and max 1.3 units from another member

# define chunks one chunk per cluster
compute clus_chunks solid chunk/atom c_cluster nchunk every compress yes  # Says which atoms are in which chunk

# count the size of each chunk
compute size_chunks solid property/chunk clus_chunks count


# Find the maximum entry in the vector of chunk sizes
variable max_n equal max(c_size_chunks)


# Thermo style which includes this variable
# thermo_style custom step temp pe vol v_max_n

thermo ${N}  # Print the thermo information every 100 steps
thermo 100  

# Reset the npt fix at a lower temperature (below freezing)

compute myRDF all rdf 100
fix 2 all ave/time 1 50 100 c_myRDF[*] file pcf.rdf mode vector


compute msd all msd com yes
variable twopoint equal c_msd[4]/6/(step*dt+1.0e-6)
fix 9 all vector 10 c_msd[4]
variable fit equal slope(f_9)/6/(10*dt)
thermo_style custom step temp pe c_msd[4] v_twopoint v_fit v_max_n


fix 1  all npt temp  ${temp} ${temp}  0.1  iso  5.68  5.68  0.5  mtk yes tchain  5  pchain  5
fix 1  all npt temp  0.8 ${temp}  0.1  iso  5.68  5.68  0.5  mtk yes tchain  5  pchain  5
fix 1  all npt temp  0.8 0.8  0.1  iso  5.68  5.68  0.5  mtk yes tchain  5  pchain  5

dump dmp2 all dcd ${N} traj.dcd
dump dmp2 all dcd 100 traj.dcd
dump dmp3 all dcd ${N} traj_unwrap.dcd
dump dmp3 all dcd 100 traj_unwrap.dcd
dump_modify dmp3 unwrap yes


# fix rnuntil all halt ${N} v_max_n >= 3980 error soft message no   # Stop when solidified

run 100000 # 5000000  # Run for this many steps
Neighbor list info ...
  update every 1 steps, delay 10 steps, check yes
  max neighbors/atom: 2000, page size: 100000
  master list distance cutoff = 3.8
  ghost atom cutoff = 3.8
  binsize = 1.9, bins = 6 6 6
  5 neighbor lists, perpetual/occasional/extra = 1 4 0
  (1) pair lj/cut, perpetual
      attributes: half, newton on
      pair build: half/bin/atomonly/newton
      stencil: half/bin/3d
      bin: standard
  (2) compute orientorder/atom, occasional
      attributes: full, newton on
      pair build: full/bin/atomonly
      stencil: full/bin/3d
      bin: standard
  (3) compute coord/atom, occasional
      attributes: full, newton on
      pair build: full/bin/atomonly
      stencil: full/bin/3d
      bin: standard
  (4) compute cluster/atom, occasional
      attributes: full, newton on
      pair build: full/bin/atomonly
      stencil: full/bin/3d
      bin: standard
  (5) compute rdf, occasional, copy from (1)
      attributes: half, newton on
      pair build: copy
      stencil: none
      bin: none
Per MPI rank memory allocation (min/avg/max) = 9.702 | 9.704 | 9.707 Mbytes
Step Temp PotEng c_msd[4] v_twopoint v_fit v_max_n 
    4000   0.82582987   -6.5959919            0            0 8.3333333e+20           11 
    4100   0.78224147   -6.6193806  0.037675045 0.00076575285  0.034300149            6 
    4200   0.81784674   -6.6065611  0.061579385  0.001221813  0.026941811            7 
    4300   0.81387393   -6.5925078  0.082690756 0.0016025338   0.02266339           16 
    4400   0.80144502   -6.6576185   0.10118187  0.001916323  0.020666939           25 
    4500   0.76486321   -6.6059207   0.12096352 0.0022400649  0.019105031            5 
    4600   0.81790143   -6.5861129   0.14187792 0.0025702518   0.01846725           23 
    4700       0.8014   -6.5935957   0.15975039 0.0028324533   0.01797471           14 
    4800   0.79694384   -6.6500132   0.17874882 0.0031032777  0.017514172           16 
    4900   0.80064923   -6.6076706   0.20054369 0.0034106066    0.0173387            7 
    5000   0.79519034   -6.5477842   0.21110214 0.0035183686  0.017035044           16 
    5100   0.78272862   -6.5994809    0.2163228 0.0035346859  0.016303419           13 
    5200   0.82505534   -6.6323299   0.22853037 0.0036623453   0.01557331           23 
    5300   0.75582045   -6.5238621   0.24389967 0.0038349001  0.015031139           15 
    5400   0.83666605   -6.5780366   0.25329979  0.003908947  0.014550826            5 
    5500   0.80503858   -6.6148932   0.25498218 0.0038633661  0.013971372            6 
    5600   0.76320095   -6.6257787     0.270756 0.0040291068  0.013412835            4 
    5700   0.77685258   -6.5987204   0.28875099 0.0042215053  0.013052947            4 
    5800   0.79371643   -6.5896435   0.30645011 0.0044030185  0.012865089            3 
    5900   0.82224459   -6.6041003    0.3249331 0.0045894502  0.012730991            8 
    6000    0.8138065   -6.6096815   0.34027743  0.004726075  0.012682896            5 
    6100   0.76335113   -6.6167713   0.35718953  0.004879638  0.012641578            8 
    6200   0.77654757   -6.5710198   0.37172367 0.0049962855   0.01261519            9 
    6300   0.79178579   -6.6217982   0.38681226 0.0051165638  0.012588441           13 
    6400    0.7877444   -6.6994923   0.38772991 0.0050485661  0.012495915           17 
    6500   0.81215045   -6.6470741   0.39889288 0.0051140108  0.012351562           18 
    6600   0.80265928   -6.6026519    0.4160859 0.0052536095   0.01225589            8 
    6700   0.79417897   -6.5703603    0.4295015  0.005342058  0.012173505            9 
    6800   0.80422253   -6.5916963   0.41657148 0.0051050423  0.012025676            5 
    6900   0.78525825   -6.6278688   0.40909631 0.0049407763  0.011757656            6 
    7000   0.77960742   -6.6238432   0.42340754 0.0050405656  0.011474266            5 
    7100   0.78423548   -6.6471837   0.44242984 0.0051928381  0.011274526           10 
    7200   0.80809168    -6.607632   0.45632518  0.005281541   0.01112496            4 
    7300   0.79108796   -6.6612732   0.45739923  0.005221452  0.010966069            8 
    7400   0.78776973   -6.6610237   0.45864712 0.0051649447  0.010784447            5 
    7500   0.79379999   -6.6450746   0.46480769 0.0051645295  0.010591579            9 
    7600   0.80500631    -6.631287   0.47061894 0.0051602951  0.010415252           13 
    7700   0.83894627   -6.6321762   0.48128547 0.0052087169  0.010250988           13 
    7800   0.78912852   -6.6407192   0.49613707 0.0053006094  0.010116207            6 
    7900     0.799153   -6.7160681   0.51223779 0.0054033518 0.0099922662            5 
    8000   0.81980428   -6.7010432   0.53772464  0.005601298 0.0099339993            7 
    8100   0.79216972    -6.635662   0.56063239 0.0057678225 0.0099107744            7 
    8200   0.81302334    -6.640973   0.58050646 0.0058994555 0.0099247946            4 
    8300   0.79245421   -6.6113307   0.58259976 0.0058493948 0.0099226026            2 
    8400   0.77748166   -6.6339485   0.58507263 0.0058042917 0.0098975953            2 
    8500   0.78391219   -6.6321576   0.58227689 0.0057085966 0.0098464558            4 
    8600   0.79895221   -6.6223451     0.588436 0.0057018989 0.0097803699            8 
    8700   0.76110549   -6.5873334   0.59597754 0.0057085968 0.0097114403            2 
    8800   0.77397422   -6.6418127   0.59575432 0.0056416126 0.0096366467            6 
    8900   0.76170222   -6.6898124     0.595081 0.0055719192 0.0095383156            2 
    9000   0.79562601   -6.6192231    0.6176743 0.0057192062 0.0094528261            5 
    9100   0.82628779   -6.6191484   0.62189611  0.005695019 0.0093834894            7 
    9200   0.78888419    -6.654473   0.63371896 0.0057402077 0.0093185335            6 
    9300   0.74557276   -6.6228427   0.64770971 0.0058038502 0.0092650623            9 
    9400   0.77721197   -6.6320252    0.6439321 0.0057086176 0.0091967582            6 
    9500   0.79270866    -6.684147   0.65885833 0.0057794587 0.0091336989            3 
    9600   0.75570062   -6.6917607   0.66681451 0.0057883201 0.0090712715            8 
    9700   0.78650185   -6.6428288    0.6853482 0.0058878708 0.0090232698            7 
    9800   0.78684992   -6.6626349   0.69931736 0.0059465759 0.0089898651            9 
    9900    0.7552582   -6.6431296   0.70523832 0.0059363492 0.0089571139            9 
   10000   0.75970689   -6.6706485   0.70924044 0.0059103367  0.008915483            3 
   10100   0.81080921   -6.6463385   0.72665935 0.0059955389 0.0088824379            6 
   10200   0.81109381   -6.6270304   0.74354407 0.0060747062 0.0088661965            9 
   10300   0.85052157   -6.6777838   0.74255098 0.0060076937 0.0088459499           10 
   10400   0.80497189   -6.6902868   0.75451445 0.0060457886 0.0088204042            5 
   10500   0.78390595   -6.6761059   0.75864785 0.0060210144 0.0087905413            4 
   10600   0.79005891   -6.6355974   0.75746236 0.0059548925 0.0087548516            2 
   10700   0.77636638   -6.6481293   0.75454328  0.005876505 0.0087085401            4 
   10800   0.76284842   -6.6836316   0.77085949 0.0059479896 0.0086629106            7 
   10900   0.79315851   -6.6446137   0.78008172 0.0059639273 0.0086224102           13 
   11000   0.80042833   -6.6468804   0.79053634 0.0059889114 0.0085865686           22 
   11100    0.8403929   -6.6336884   0.79980863  0.006004569  0.008554267            8 
   11200   0.79280422    -6.643636   0.79829212 0.0059396732 0.0085170042            5 
   11300   0.81674927   -6.6357609   0.81415707 0.0060041079 0.0084800457            5 
   11400   0.82446461   -6.6730126   0.82644661 0.0060412762 0.0084524166            4 
   11500    0.7878898   -6.7058213   0.83821422 0.0060740158 0.0084268841           15 
   11600   0.78636405   -6.6709122   0.85342913 0.0061309562 0.0084033468            8 
   11700   0.80935807   -6.7027405   0.85453746 0.0060864489 0.0083803055            6 
   11800   0.77990822   -6.7006104   0.86438429 0.0061044086 0.0083553201            7 
   11900   0.80918789   -6.6885304   0.86785179 0.0060773932 0.0083280005           25 
   12000   0.76243849   -6.6337178   0.87062351 0.0060459963 0.0082998778           12 
   12100   0.83058621   -6.6631792   0.87339023  0.006015084 0.0082674042            8 
   12200   0.81762529   -6.6344573   0.87632625 0.0059858348 0.0082338775            4 
   12300   0.80699853   -6.7087998   0.87899964 0.0059552819 0.0081982228            6 
   12400   0.81450893   -6.6895173    0.8763149 0.0058892128 0.0081552569            4 
   12500   0.78650856   -6.6716986   0.89576102 0.0059717399 0.0081168788            5 
   12600   0.81558653   -6.6685602    0.9129745 0.0060381909 0.0080838592            3 
   12700   0.79364843   -6.6533174   0.93849683 0.0061581154 0.0080641992            9 
   12800   0.82200428   -6.6407816   0.93442661 0.0060835063 0.0080439381           14 
   12900   0.79416141   -6.6821468   0.93046334 0.0060107449   0.00801628            5 
   13000   0.82991952   -6.6662252   0.91595673 0.0058715173 0.0079795587           15 
   13100   0.80796968    -6.665888   0.92614011 0.0058914763 0.0079394774           12 
   13200   0.83206465   -6.6327652   0.93822513 0.0059231382 0.0079020966           17 
   13300   0.81414795   -6.6622498   0.94641617 0.0059299256 0.0078661486           10 
   13400   0.84924428   -6.6999188   0.95781574 0.0059565653 0.0078346805           14 
   13500    0.7925053   -6.6831488   0.96701938 0.0059692552 0.0078042025            8 
   13600   0.82218046   -6.6663803   0.96417711 0.0059079478 0.0077711187           13 
   13700    0.8229338   -6.6176599    1.0004283 0.0060853299 0.0077447149           11 
   13800   0.79526384   -6.6703547    1.0091263 0.0060937577 0.0077269248           12 
   13900   0.83415502   -6.7066134    1.0191008 0.0061097167 0.0077106023            7 
   14000   0.79160484   -6.6929175    1.0220924  0.006083883 0.0076949717           16 
   14100   0.81287469   -6.6538942    1.0257206 0.0060621784 0.0076760967           13 
   14200   0.81094337   -6.6342424    1.0426332 0.0061187391 0.0076603716            4 
   14300   0.77057942   -6.6283913    1.0350881 0.0060319817 0.0076435236            4 
   14400   0.83913063   -6.6778349    1.0446801 0.0060456022 0.0076235885            5 
   14500   0.77788009   -6.6220778    1.0532399 0.0060531029 0.0076024708            7 
   14600   0.81690356   -6.6898819     1.081339 0.0061720259 0.0075865924           11 
   14700   0.79805694    -6.677512    1.0854053 0.0061530913 0.0075777248           19 
   14800   0.81925764   -6.6404722    1.1018594 0.0062041631 0.0075673935           16 
   14900   0.79816997   -6.6267024    1.1065094  0.006188531 0.0075597227           11 
   15000   0.76007793    -6.642012    1.1159494 0.0061997186 0.0075498375           17 
   15100   0.82145628   -6.6434668    1.1250924  0.006209119 0.0075412009           12 
   15200    0.7703355   -6.5923438     1.131587 0.0062038761 0.0075325453           11 
   15300   0.83457865   -6.6151172     1.145214 0.0062375489  0.007526762            9 
   15400   0.80360604    -6.602133    1.1646668 0.0063023093 0.0075235081            8 
   15500   0.79463393   -6.6703748    1.1768073 0.0063269207  0.007522288           16 
   15600   0.80773545   -6.6378461    1.1901035 0.0063573905 0.0075228219           10 
   15700   0.79097014   -6.6074481    1.2022411  0.006381322 0.0075238589           17 
   15800   0.74322999   -6.6659673    1.2182537 0.0064253885 0.0075275549           17 
   15900   0.81035928   -6.6813051    1.2250308 0.0064204968 0.0075287161           15 
   16000   0.81955052   -6.6293805    1.2570525 0.0065471482 0.0075354047            7 
   16100    0.7613046   -6.5719883    1.2644985 0.0065450233 0.0075463593            6 
   16200   0.82163062   -6.6726742    1.2790034 0.0065792354 0.0075578684            7 
   16300   0.76132097   -6.6400289    1.2546604 0.0064144193 0.0075636273            6 
   16400   0.81170478   -6.6265668    1.2694872 0.0064506462 0.0075631184            5 
   16500   0.80267734   -6.6069388    1.2648215 0.0063879872 0.0075625204            6 
   16600    0.7782564   -6.6114768    1.2817844 0.0064346604 0.0075608216            4 
   16700   0.81538179   -6.6023383    1.2888315 0.0064312947 0.0075601667            3 
   16800   0.85420906   -6.5947123    1.3005163 0.0064509733 0.0075598455            4 
   16900   0.79500294   -6.5896314    1.3239059 0.0065281352 0.0075619221            8 
   17000   0.78681673   -6.6536127    1.3296557 0.0065179197 0.0075644563            8 
   17100   0.81513579   -6.6367822    1.3499401 0.0065786551 0.0075698242            6 
   17200   0.82048548   -6.5811379    1.3589918 0.0065842622 0.0075766933           15 
   17300   0.79358118   -6.5949226    1.3611689   0.00655669 0.0075824152            6 
   17400   0.75935136   -6.6779161    1.4058385  0.006732943 0.0075898827            5 
   17500   0.77686963   -6.6398722    1.4319425 0.0068187739 0.0076049245           14 
   17600   0.78060372   -6.6802838    1.4552955 0.0068906037 0.0076227774           14 
   17700   0.76267611   -6.6509845    1.4465249 0.0068103807 0.0076391148           14 
   17800   0.80234604   -6.6228143    1.4552148  0.006812803 0.0076525384           28 
   17900   0.77981097   -6.6412587    1.4715561 0.0068508195  0.007667203            8 
   18000   0.80691679   -6.6959676    1.4825002 0.0068634265  0.007681709           15 
   18100   0.81244505   -6.6475902    1.5091073 0.0069480076 0.0076973348           11 
   18200   0.76170461   -6.6828114    1.5198876 0.0069591923 0.0077155767           16 
   18300   0.79230075   -6.6824355    1.5288767 0.0069620978 0.0077333565           15 
   18400   0.81375329   -6.6495913    1.5241178 0.0069027071 0.0077489309            8 
   18500   0.77562441   -6.6299243    1.5299136 0.0068915023 0.0077609007            7 
   18600   0.80159927   -6.5943594    1.5364204  0.006883604 0.0077721721            7 
   18700   0.79153721   -6.6680521    1.5336259   0.00683434 0.0077811724            6 
   18800    0.7695784   -6.6455574    1.5155464 0.0067178474 0.0077847542           11 
   18900   0.82962009   -6.6565867     1.520374 0.0067035889 0.0077848066            7 
   19000   0.78508233    -6.657936     1.537365 0.0067428286 0.0077862194            6 
   19100   0.78757378   -6.6225929    1.5381834 0.0067110967 0.0077861901            7 
   19200   0.77801742   -6.5915715    1.5646579 0.0067910499 0.0077890029            2 
   19300   0.73330313   -6.5951179    1.5870177 0.0068524079 0.0077932778            6 
   19400   0.77280163   -6.7381997    1.6079859 0.0069071559 0.0077987794            4 
   19500   0.76182987   -6.6407014    1.6328006 0.0069777801 0.0078069741            8 
   19600   0.79919649    -6.634552    1.6305955 0.0069328038 0.0078167629           13 
   19700   0.78722562   -6.6625793     1.624456 0.0068716411 0.0078233627            7 
   19800   0.80760334   -6.6612402    1.6223802 0.0068281994 0.0078272214            9 
   19900   0.83506599    -6.638808    1.6424132 0.0068777771 0.0078308547           11 
   20000   0.78227638   -6.6331984    1.6380988 0.0068254116 0.0078344915            5 
   20100   0.77668013   -6.6449231    1.6592117 0.0068789869 0.0078367612            4 
   20200   0.79595618   -6.6585229    1.6846214 0.0069497579 0.0078412322           13 
   20300   0.78777802   -6.6949003    1.6770593 0.0068844798 0.0078457385            4 
   20400   0.79222852   -6.6732418    1.6762414 0.0068473913 0.0078481401           10 
   20500   0.84241016   -6.6574439    1.6975331 0.0069005409 0.0078516033            4 
   20600   0.79554568   -6.6261992    1.6930651 0.0068489688 0.0078544499            5 
   20700   0.80219329   -6.5870896    1.6850698 0.0067836945 0.0078549666            6 
   20800   0.83225326   -6.6363347    1.7016808 0.0068176311 0.0078546306            6 
   20900   0.78793541   -6.6233125    1.7215057 0.0068640577 0.0078548651            4 
   21000    0.7499625   -6.6353233    1.7298791 0.0068645994 0.0078548281            1 
   21100   0.81319578    -6.632048    1.7410318 0.0068761128 0.0078555365            2 
   21200   0.78941413   -6.6418211    1.7348334 0.0068193134 0.0078543853           10 
   21300   0.78751559   -6.6305396    1.7432307 0.0068201514 0.0078528369            5 
   21400    0.7701262   -6.6527539    1.7548377 0.0068334798 0.0078511294            4 
   21500   0.81728998   -6.6417298    1.7586768 0.0068165766 0.0078497258            4 
   21600   0.79331035   -6.6732336    1.7569736 0.0067784473 0.0078469074            5 
   21700   0.77756484   -6.6824211    1.7795686 0.0068339807 0.0078437284            3 
   21800   0.78179415   -6.6208669    1.7792892 0.0068015642 0.0078415076            3 
   21900   0.80303488   -6.6717957    1.7912936 0.0068161857 0.0078382123            4 
   22000   0.80077618   -6.6830882    1.7996191 0.0068167388 0.0078358408            4 
   22100   0.78648203   -6.6960012    1.8206945 0.0068653638  0.007834594            3 
   22200   0.78578539   -6.7035211    1.8220094 0.0068393746 0.0078340848            3 
   22300   0.83327136   -6.7141573    1.8215053 0.0068068207 0.0078318229            8 
   22400   0.81634129   -6.6669613    1.8378181 0.0068371207 0.0078299016            6 
   22500   0.77028999   -6.6949416    1.8370097 0.0068037395 0.0078273099            5 
   22600   0.76569172   -6.6887397    1.8481881 0.0068148528 0.0078229325            5 
   22700   0.77821337   -6.6477067    1.8737354 0.0068786172 0.0078205477            9 
   22800   0.80318719   -6.6701059    1.8928816 0.0069184267 0.0078199754            4 
   22900   0.78231231   -6.6877193    1.9125601 0.0069598254 0.0078208719            6 
   23000   0.82358111   -6.6768193    1.9187412 0.0069519607 0.0078234714           11 
   23100   0.80199801   -6.6453414    1.9324976 0.0069714918 0.0078259267            9 
   23200   0.76261972   -6.6758708    1.9480268 0.0069972226 0.0078287147           22 
   23300   0.79409499   -6.6479756    1.9629287 0.0070204887 0.0078307784            6 
   23400   0.81796873   -6.6439285    1.9916567 0.0070927944 0.0078353386           25 
   23500   0.78863604   -6.6892471    1.9997624 0.0070913559 0.0078410198            7 
   23600   0.80299933   -6.6697752      2.01741 0.0071236228 0.0078459276           10 
   23700   0.79690762   -6.6011403     2.036498 0.0071606822 0.0078532664            4 
   23800   0.80769544   -6.6729186    2.0355165 0.0071271585 0.0078597228            6 
   23900   0.78134585   -6.6472142    2.0150254 0.0070258902 0.0078633574            5 
   24000   0.78548033   -6.6427894    2.0322003 0.0070562509 0.0078652048            5 
   24100   0.83712345   -6.6184813    2.0213897 0.0069895908 0.0078665497           11 
   24200   0.80270732   -6.6414084    2.0182156  0.006949778 0.0078659235            9 
   24300   0.77637953   -6.6792507    2.0459577 0.0070163157 0.0078656366            9 
   24400   0.79749165   -6.6318794    2.0619473 0.0070421696 0.0078673123            9 
   24500   0.79456559    -6.659236    2.0599797 0.0070067336 0.0078677186           23 
   24600   0.80079191   -6.6716627     2.077585 0.0070378895 0.0078675957           11 
   24700    0.7848678   -6.6587824    2.0825411 0.0070261169 0.0078682762            4 
   24800   0.81103632   -6.6743089    2.0637878 0.0069347707 0.0078675771            3 
   24900    0.8266455   -6.6284642      2.07505 0.0069446118 0.0078650649            3 
   25000   0.77720521    -6.654079    2.0770183 0.0069233942 0.0078623904            5 
   25100   0.80043127   -6.6976376    2.0810339 0.0069091431 0.0078592582            4 
   25200   0.79929293   -6.6462222    2.1284667 0.0070385801 0.0078573836            5 
   25300   0.78867145   -6.6296866    2.1534976 0.0070932067  0.007859049           20 
   25400   0.76204101   -6.6394616    2.1585257 0.0070817772 0.0078607144            3 
   25500   0.75249105   -6.6817095    2.1664708 0.0070799696 0.0078622873            5 
   25600   0.80161199   -6.6514678    2.1656049 0.0070494951 0.0078636569           11 
   25700   0.76763231   -6.6545146      2.15947 0.0070021723 0.0078628681           10 
   25800   0.75935315    -6.683319     2.173594 0.0070206523 0.0078615864            7 
   25900   0.79469907   -6.6288618    2.2056866 0.0070968037 0.0078619233            2 
   26000   0.78739548    -6.596958    2.2146351 0.0070981893  0.007863875            4 
   26100   0.79995605   -6.7021173    2.2233856 0.0070989322  0.007865795            9 
   26200   0.80360915    -6.646873    2.2556858 0.0071745731 0.0078690472            4 
   26300   0.81257993   -6.6826189    2.2934234 0.0072668675 0.0078743279            7 
   26400   0.82695496   -6.5844686    2.3266888 0.0073443459  0.007882622            7 
   26500   0.79529605   -6.6285794    2.3370796 0.0073493067 0.0078916047            6 
   26600   0.81276059    -6.632848    2.3507653 0.0073645528  0.007900155            2 
   26700   0.80623953   -6.6211554     2.349937  0.007334385 0.0079087008            3 
   26800   0.82595809   -6.6520834    2.3551735 0.0073233007 0.0079155664            2 
   26900   0.78311863   -6.6727363    2.3583549 0.0073059319 0.0079221353            4 
   27000   0.76398284   -6.6093919    2.3932542 0.0073865869 0.0079288156            9 
   27100   0.81511091   -6.6220333    2.4161556 0.0074297527 0.0079381365            7 
   27200   0.79568848   -6.6466136    2.4302461 0.0074456066  0.007947358           18 
   27300   0.76741167    -6.718167    2.4489635 0.0074754685 0.0079565773            5 
   27400   0.79154911   -6.6768828    2.4578267 0.0074751419 0.0079665639            5 
   27500    0.7963829   -6.6125319    2.4781741 0.0075096184 0.0079770658            8 
   27600   0.79430132   -6.5953548    2.4801158 0.0074882721  0.007987424            5 
   27700   0.81452907   -6.6806289     2.473798 0.0074422321 0.0079966613            3 
   27800   0.79930135   -6.7208233    2.4598551 0.0073736664 0.0080041258            6 
   27900   0.80404541   -6.6370753    2.4789898 0.0074043899 0.0080102447            8 
   28000   0.80166548   -6.5815848    2.4847949 0.0073952229 0.0080168768            9 
   28100   0.78437819   -6.6341979    2.5199457 0.0074731485 0.0080244248            7 
   28200   0.79617572    -6.676447    2.5178807 0.0074405458 0.0080314316            4 
   28300   0.82083393   -6.6627873    2.5077003 0.0073842763 0.0080377985           12 
   28400   0.84277049    -6.669319    2.5374501 0.0074455694 0.0080442115           20 
   28500   0.76986839   -6.6917814     2.567739 0.0075080087 0.0080516402           11 
   28600   0.79658728   -6.6950207    2.5611154 0.0074624574 0.0080582326           21 
   28700   0.78117345   -6.6997523    2.5762935 0.0074805268  0.008064528           12 
   28800   0.79883188   -6.6733809    2.5854736 0.0074811156 0.0080706575           11 
   28900   0.83549993   -6.6370851    2.5810609 0.0074425055 0.0080767691            7 
   29000   0.79815702   -6.6335879    2.5989026 0.0074681107 0.0080834843           11 
   29100   0.80344724   -6.6922122    2.5871351 0.0074087488 0.0080893482           17 
   29200   0.80213268   -6.6366388    2.6119838 0.0074542916 0.0080935621           15 
   29300   0.81869609   -6.6700243    2.6441517 0.0075203404 0.0080994233            7 
   29400   0.76057973   -6.6506341     2.672254 0.0075744159  0.008106491           15 
   29500   0.83643284   -6.6501833    2.6727155 0.0075500436  0.008113664           13 
   29600   0.79190069   -6.6011892    2.6590167 0.0074859702 0.0081202689           14 
   29700   0.81382028   -6.6501493    2.6623724 0.0074701805 0.0081257256           22 
   29800    0.8310733   -6.6369586    2.6741662 0.0074780933 0.0081310645            7 
   29900    0.8070237    -6.621054     2.690191 0.0074977451 0.0081361416            4 
   30000   0.82016419   -6.5641281    2.7179258 0.0075497937 0.0081421653            2 
   30100   0.81611498   -6.6369261    2.7045541 0.0074876912 0.0081473765            3 
   30200   0.75743192    -6.663261    2.7171612 0.0074976854 0.0081519994            5 
   30300    0.7919203   -6.6993751     2.727694 0.0075019085 0.0081557423            5 
   30400   0.78614198   -6.6015546    2.7368382 0.0075022975 0.0081605389            9 
   30500   0.78610538   -6.6250914    2.7575989  0.007534423 0.0081646882            4 
   30600   0.82515824    -6.612926    2.7577509 0.0075102147 0.0081687624            2 
   30700   0.78528512   -6.5961633    2.7624843    0.0074986   0.00817246           10 
   30800    0.7994644   -6.6311174    2.7709575 0.0074971792  0.008175556            8 
   30900   0.84336986   -6.5684586    2.7640056 0.0074541682 0.0081785887            5 
   31000   0.79422908   -6.5480898     2.757243 0.0074119434 0.0081808351            4 
   31100   0.79728448   -6.6135329    2.7740644 0.0074331844  0.008182448            5 
   31200   0.78667464    -6.616667    2.8012899 0.0074820776 0.0081845919            3 
   31300    0.7904395   -6.6476154    2.8252478 0.0075219589 0.0081874889            3 
   31400   0.81981981   -6.6767705    2.8078168  0.007451743 0.0081894875            5 
   31500    0.7857947    -6.672472    2.7946368  0.007393219 0.0081896427            6 
   31600   0.81082145   -6.6098694    2.8073913 0.0074034578 0.0081899597           14 
   31700   0.81473335    -6.690819    2.8306149 0.0074411538 0.0081910192           17 
   31800   0.75508076   -6.6749445    2.8476462 0.0074623851 0.0081918118           27 
   31900   0.77306524   -6.6502754    2.8508624  0.007447394 0.0081930389           22 
   32000   0.82300355    -6.643137    2.8457684  0.007410855  0.008193832           17 
   32100   0.81407582   -6.6638511    2.8297368 0.0073461494 0.0081930702           18 
   32200   0.79569683   -6.6785186     2.838345 0.0073456132  0.008191875            8 
   32300   0.78733645   -6.6472893    2.8395433 0.0073259629 0.0081899146           10 
   32400   0.82001587    -6.651449    2.8643223 0.0073670839   0.00818872           10 
   32500   0.79760988   -6.6625003    2.8859532 0.0073998798 0.0081879821            9 
   32600   0.79194789   -6.6638104    2.8987359 0.0074098564 0.0081874004            2 
   32700   0.81133585   -6.6340365    2.9200639 0.0074415491 0.0081871839            7 
   32800   0.78258349   -6.5707118    2.9673752 0.0075390629 0.0081888813            6 
   32900   0.82512531   -6.6486525    2.9692565 0.0075209129 0.0081920089            9 
   33000   0.81153239   -6.6581689    2.9473785 0.0074428748 0.0081933093           12 
   33100   0.81895065   -6.6946673    2.9339839 0.0073866664 0.0081933504            7 
   33200   0.77740268   -6.6190057    2.9100954 0.0073044561 0.0081913675           15 
   33300   0.81271876   -6.6068615    2.9527434 0.0073892477 0.0081895095           17 
   33400   0.76989334    -6.634965    2.9723512 0.0074160457 0.0081887787           16 
   33500    0.7599811   -6.7070607    2.9936765 0.0074469564 0.0081881701            8 
   33600   0.76705683   -6.6519483    3.0137095 0.0074744779 0.0081884503           15 
   33700   0.79043685   -6.5839389    3.0423678 0.0075231646 0.0081896234           11 
   33800   0.82013817   -6.6600004    3.0242258 0.0074561779   0.00819072           21 
   33900   0.81409288   -6.6619049    3.0400692 0.0074731297  0.008191183            5 
   34000   0.79807116   -6.6679137    3.0562967 0.0074909231 0.0081923197           16 
   34100   0.80593065   -6.6700136    3.0903034 0.0075520611 0.0081937656           15 
   34200   0.80409675   -6.6207461    3.1313586 0.0076300159  0.008197417           16 
   34300   0.79914167   -6.6963115    3.1603597 0.0076782304 0.0082021237           12 
   34400   0.80268906   -6.6406129    3.1823414 0.0077091604 0.0082078807           16 
   34500   0.80796182   -6.6459856    3.2019429 0.0077341616 0.0082135307           12 
   34600   0.77217188   -6.6286726    3.2333732 0.0077875075 0.0082194197           11 
   34700   0.78507458   -6.6591725    3.2256652 0.0077465541 0.0082251715           29 
   34800   0.77622894   -6.6732714    3.2239284 0.0077201349 0.0082301422           18 
   34900   0.80691981   -6.6355616    3.2183194 0.0076846211 0.0082353064            7 
   35000   0.81769935   -6.6634389    3.2312226 0.0076933871 0.0082398477            9 
   35100   0.77968492   -6.7005879    3.2627714 0.0077463706 0.0082445685           12 
   35200   0.77903166   -6.6451627    3.2599586 0.0077177048 0.0082494167           12 
   35300   0.80219549    -6.662905    3.2740215 0.0077290403 0.0082538801           20 
   35400   0.77199415   -6.6687651     3.274482 0.0077082908 0.0082582618           18 
   35500   0.77581448   -6.6199603    3.2756973 0.0076894301 0.0082618532           12 
   35600   0.80184978   -6.6141076     3.274467 0.0076649507  0.008264945           19 
   35700   0.76267665   -6.6636637    3.2600873 0.0076099142 0.0082674279           27 
   35800   0.76640251   -6.7312879    3.2739648 0.0076209608 0.0082687152           32 
   35900   0.78631013   -6.6881763    3.2691092 0.0075884613 0.0082694767           21 
   36000   0.77134809   -6.6868626    3.2886881 0.0076127038 0.0082705926           19 
   36100    0.8166482   -6.6355156    3.2930207 0.0076016174 0.0082722476           25 
   36200    0.7816163    -6.654268    3.2819705 0.0075551807  0.008273186           23 
   36300   0.78431711   -6.6528793    3.3202709 0.0076222931 0.0082744833           38 
   36400   0.82832658   -6.6814891    3.3218431  0.007604952 0.0082756417           51 
   36500   0.78649274   -6.6905462    3.3345393 0.0076131034 0.0082770279           52 
   36600   0.80456337   -6.6897918    3.3488731 0.0076249386 0.0082784324           44 
   36700   0.78731278   -6.6290054    3.3527098 0.0076128741 0.0082796897           34 
   36800   0.78295899   -6.7048721    3.3468307 0.0075788737 0.0082801833           34 
   36900   0.79116099   -6.7165726     3.366126 0.0076019105 0.0082804365           32 
   37000   0.85704886   -6.6993646    3.3501488 0.0075453801 0.0082808451           27 
   37100   0.78173872   -6.6139095    3.3583151  0.007543385 0.0082807851           22 
   37200   0.84518313   -6.6881587    3.3701822 0.0075496912 0.0082808959           21 
   37300   0.80399005   -6.7079477    3.4166862 0.0076333471 0.0082815204           13 
   37400   0.81130025    -6.671128    3.4101565 0.0075983878 0.0082822246            5 
   37500   0.83896597   -6.6589058    3.4102133 0.0075782516 0.0082827728            2 
   37600   0.81553067   -6.6848058    3.4129854 0.0075642406 0.0082827307            3 
   37700   0.77022753   -6.6243639      3.41716 0.0075534039  0.008282508            1 
   37800   0.81795898   -6.6364256    3.4370293 0.0075772249 0.0082822194           16 
   37900   0.77837574   -6.6301524    3.4371411 0.0075574781 0.0082823768           10 
   38000   0.79462843   -6.6547311    3.4660938 0.0076010828 0.0082824292            5 
   38100   0.77981637    -6.647086    3.5080571 0.0076729157 0.0082835373            8 
   38200   0.80577379   -6.5935941    3.5424648   0.00772789 0.0082850177           19 
   38300   0.79906282   -6.6366926    3.5621193  0.007750477 0.0082877501            8 
   38400   0.78562618   -6.6310739    3.5512465  0.007706698 0.0082899362           14 
   38500   0.80091157   -6.6782436    3.5503929  0.007684833 0.0082919839           20 
   38600   0.83003764   -6.6419075    3.5281332 0.0076168678 0.0082923821           16 
   38700   0.79929875    -6.632741    3.5415889 0.0076261603 0.0082928387            7 
   38800   0.80152838   -6.6642155    3.5210569 0.0075624073 0.0082924839            9 
   38900   0.82611816   -6.6958723    3.5414203   0.00758659 0.0082917672            8 
   39000   0.80433536     -6.68772    3.5785822 0.0076465431 0.0082919037           13 
   39100   0.74991683   -6.6679147    3.6064033 0.0076862815 0.0082927748            9 
   39200   0.78639658   -6.6307226    3.6419938 0.0077423337  0.008294739            6 
   39300   0.84056144   -6.6620287    3.6576312 0.0077557913 0.0082977242            6 
   39400   0.78178969   -6.6844985    3.6644488 0.0077505262 0.0083002272           14 
   39500   0.77868541   -6.7124238    3.6687045 0.0077398828 0.0083020055            5 
   39600    0.7853675   -6.6733113    3.6511458 0.0076833875 0.0083032188           10 
   39700   0.78005435   -6.6797658    3.6652168 0.0076935701 0.0083039628            6 
   39800   0.75221914   -6.6938279    3.6620723 0.0076676555 0.0083043277           10 
   39900   0.81679341   -6.7066647    3.6886084 0.0077038604 0.0083057991            6 
   40000   0.78332291    -6.633857    3.6666486 0.0076388511  0.008306576            5 
   40100   0.82927588   -6.6956286      3.67004 0.0076268495 0.0083064408           18 
   40200   0.79203218    -6.702144    3.6919857 0.0076533699 0.0083063506            8 
   40300   0.77306142   -6.6851699    3.7014728 0.0076539966 0.0083065408            7 
   40400    0.7882553   -6.7440367     3.692349 0.0076162313 0.0083064992           10 
   40500   0.78085286   -6.6663288    3.7001315 0.0076134391 0.0083059681           16 
   40600   0.78964818   -6.6513244    3.7187176 0.0076328357 0.0083053351           10 
   40700   0.79793123   -6.6866835    3.7194316 0.0076155438 0.0083045085           11 
   40800   0.75602173   -6.6772028    3.7038246 0.0075650012  0.008303016           10 
   40900   0.79032874   -6.7043576    3.6938835 0.0075262498 0.0083009316           23 
   41000   0.85801424   -6.7021569     3.733568 0.0075885528 0.0082996249           10 
   41100   0.76398354   -6.6277847    3.7663709 0.0076365994 0.0082995467            9 
   41200   0.84763243    -6.688057    3.7895878 0.0076650238 0.0083000081           10 
   41300   0.80804723   -6.6686402    3.7979388 0.0076633148 0.0083008912            8 
   41400   0.80547133   -6.6690525     3.809195 0.0076674617 0.0083014607           12 
   41500   0.80302704   -6.6204475    3.8365731  0.007703962 0.0083024342           14 
   41600   0.77025401   -6.6037411    3.8482702 0.0077088744 0.0083032144           18 
   41700    0.7580701   -6.7014493    3.8603692 0.0077145666 0.0083040711           42 
   41800   0.79286844   -6.6672549     3.904894 0.0077848763  0.008304977           13 
   41900   0.81243232   -6.6179628    3.8642726 0.0076855064 0.0083058879           25 
   42000   0.80187218   -6.6528778    3.8608282 0.0076603733 0.0083062446           15 
   42100   0.82394584   -6.6663262    3.8923768 0.0077046254 0.0083070795            9 
   42200   0.82044452   -6.7027095    3.9046936 0.0077106903 0.0083078185            9 
   42300   0.80449114   -6.6755219    3.9086513 0.0077002586 0.0083086142            9 
   42400   0.81209772   -6.6812036    3.8950921 0.0076554483 0.0083091618           11 
   42500    0.8151759   -6.6362998    3.9229034 0.0076919674  0.008309242            7 
   42600   0.79981799   -6.6619856    3.9226778 0.0076734699 0.0083093817           20 
   42700   0.78866155   -6.6662847    3.9493399 0.0077075328  0.008309589           13 
   42800   0.77836046   -6.6365049    3.9374009  0.007666279 0.0083093758           19 
   42900   0.77380043    -6.687417    3.9656463 0.0077032756 0.0083093413            6 
   43000   0.81526695   -6.6404372    3.9614427 0.0076772144 0.0083094306            9 
   43100   0.79296293   -6.6623679    3.9773549 0.0076901679 0.0083094181            9 
   43200   0.80431695   -6.6459496    3.9961661 0.0077086537 0.0083099146           11 
   43300   0.82759615   -6.6109437    4.0130422 0.0077233298 0.0083105967            5 
   43400   0.80376126   -6.6568976    3.9882645 0.0076579578 0.0083109028            8 
   43500   0.80524313   -6.6284431    4.0006521 0.0076640844 0.0083106626            6 
   43600   0.85230289   -6.6371488    4.0250542 0.0076931463 0.0083107081            8 
   43700   0.80601984   -6.6527829    4.0451985 0.0077139558 0.0083111488           11 
   43800    0.8079527   -6.6974207    4.0507149 0.0077068395 0.0083113193           20 
   43900   0.74657984   -6.6498007    4.0504964 0.0076888692 0.0083110714           14 
   44000   0.78926842   -6.6338895    4.1011572  0.007767343  0.008311351           19 
   44100   0.78557356   -6.6387218    4.1069317 0.0077606419 0.0083126541           22 
   44200   0.78783293   -6.6238732    4.0995826  0.007729228   0.00831318           21 
   44300   0.76261058   -6.7015518    4.1039558  0.007720007 0.0083134366           23 
   44400   0.78517591   -6.6952754    4.1096794 0.0077133621 0.0083133766           23 
   44500   0.78869833   -6.6266718    4.1184656 0.0077124824 0.0083132369           10 
   44600   0.81543745   -6.6248179    4.1048313 0.0076697146 0.0083128244            4 
   44700   0.79693616   -6.6159586    4.0883616 0.0076218523 0.0083120618            6 
   44800   0.81245875   -6.6319838    4.0918394 0.0076113084 0.0083109493            6 
   44900   0.84598063   -6.6437194    4.1135694 0.0076346869 0.0083099156           10 
   45000   0.81076004   -6.5913737    4.1436495 0.0076734248 0.0083091871            4 
   45100   0.77640934   -6.6128573    4.1500556 0.0076682475 0.0083088951            5 
   45200   0.77620132   -6.6163331    4.1534222 0.0076574892 0.0083079531            7 
   45300   0.82501067   -6.6478371    4.1644341 0.0076608425 0.0083070116            3 
   45400    0.7551104   -6.6560494    4.1620786  0.007639645 0.0083059652            4 
   45500   0.77996246   -6.6625995    4.1826809 0.0076605876 0.0083047843            5 
   45600    0.7952594   -6.6304492    4.1927896 0.0076622616 0.0083038164            8 
   45700   0.79385164   -6.6013175    4.1850893 0.0076314538 0.0083028599            5 
   45800   0.80112677   -6.6829717    4.2169822 0.0076728206 0.0083021386            6 
   45900   0.77790745   -6.6907372    4.2062362 0.0076365943 0.0083008327            7 
   46000   0.81101958   -6.6554929    4.2284281 0.0076601957 0.0082996748            8 
   46100   0.80537826   -6.6878143    4.2409103 0.0076661429 0.0082985615            5 
   46200    0.7773267   -6.6663336    4.2092745 0.0075924863 0.0082972714           11 
   46300   0.81956172   -6.6406012    4.2381542 0.0076280672 0.0082956141           16 
   46400   0.79956793   -6.5962784    4.2590938 0.0076492345 0.0082947249           19 
   46500   0.79716034   -6.6366856    4.3163516 0.0077353971   0.00829452            9 
   46600   0.77669139   -6.6768345    4.3328509 0.0077483027 0.0082945555           16 
   46700   0.77579113   -6.6463506    4.3483614 0.0077593886 0.0082948698           18 
   46800   0.82343814   -6.6686985    4.3768644 0.0077935618  0.008295444           21 
   46900   0.77781894   -6.6581428    4.3786872 0.0077801833  0.008296089           19 
   47000   0.81078015   -6.5586608    4.4041641 0.0078088015 0.0082970112           17 
   47100   0.78416243   -6.5814494    4.4479872 0.0078697579 0.0082990299           23 
   47200   0.83661188   -6.6230728      4.44588 0.0078493643 0.0083013399           21 
   47300   0.82327126   -6.6577749    4.4377067 0.0078183698 0.0083029073            7 
   47400   0.81153151   -6.6229412    4.4666345 0.0078527328  0.008304882           15 
   47500   0.81469394    -6.644371     4.498237 0.0078916438 0.0083072252            9 
   47600   0.84673099   -6.6561528    4.5275389 0.0079263635 0.0083099155            8 
   47700   0.79315334   -6.6146291     4.540246 0.0079319461 0.0083128225           10 
   47800   0.76556015   -6.6371305    4.5489135 0.0079304628 0.0083155247            5 
   47900   0.77578146   -6.6096178    4.5597898 0.0079328284 0.0083180952            3 
   48000   0.76707419   -6.6628406    4.5335664 0.0078707749 0.0083199906           12 
   48100   0.81298983    -6.689332    4.5175142  0.007826601 0.0083208992            4 
   48200   0.82046496   -6.6105773     4.535305 0.0078411219 0.0083220744           10 
   48300   0.80181203   -6.5511717    4.5524412 0.0078544533 0.0083233599           21 
   48400   0.78037815   -6.5782871    4.5435018 0.0078228336 0.0083246863           12 
   48500   0.80755288   -6.6434328    4.5443353 0.0078081362 0.0083253747           10 
   48600   0.81525875   -6.6417112    4.5376689 0.0077806393  0.008325893           13 
   48700   0.80307154   -6.6928597    4.5067647 0.0077117807  0.008325617           11 
   48800   0.80647723   -6.7177416    4.5821679 0.0078247402 0.0083257622           13 
   48900   0.76863775   -6.6158613    4.5913085 0.0078243158 0.0083265812            8 
   49000   0.76978466   -6.6062022    4.5971685 0.0078183136 0.0083272438            9 
   49100   0.78691962   -6.6780302    4.5955463 0.0077996372 0.0083274642           10 
   49200    0.7713088   -6.7425239    4.6025215 0.0077955987 0.0083274131           23 
   49300   0.78931723   -6.6868161    4.6219002 0.0078125426 0.0083276033            6 
   49400   0.81158703   -6.6546434    4.6153679 0.0077857082 0.0083278905            7 
   49500   0.82588603   -6.5823984    4.5971957 0.0077393866 0.0083278608            4 
   49600    0.8134834    -6.604996    4.5648999 0.0076695225 0.0083268869            5 
   49700    0.8169532   -6.6594177    4.6087016 0.0077275345 0.0083260491           11 
   49800   0.77498317   -6.6534865    4.5995315 0.0076966724 0.0083251919           22 
   49900   0.78764881   -6.6450408    4.6367556 0.0077434128 0.0083243363            7 
   50000   0.78095025   -6.5809656    4.6591483 0.0077652471 0.0083240526            8 
   50100   0.79609875   -6.6200405    4.6737697  0.007774068  0.008323965           12 
   50200   0.77833222   -6.6557326    4.6938734 0.0077919544 0.0083239202           13 
   50300   0.81328963   -6.6423078    4.7154416 0.0078121962 0.0083241713            8 
   50400   0.79177211   -6.6482472    4.7076393 0.0077837951 0.0083243718           11 
   50500   0.77138285   -6.6795615    4.7131039 0.0077773991  0.008323988            7 
   50600   0.79324543    -6.624844    4.7248004 0.0077812918 0.0083237597           12 
   50700   0.78571337   -6.6095645    4.7398311 0.0077906493 0.0083235867           11 
   50800   0.79009745   -6.6679629     4.709282 0.0077252001 0.0083231461           10 
   50900   0.78416712    -6.707651    4.7464478 0.0077708705 0.0083225134            4 
   51000   0.79811483   -6.6401133    4.7684703  0.007791618 0.0083224839            2 
   51100    0.7891727   -6.5678632    4.7448278 0.0077378143 0.0083221089            4 
   51200   0.78761186   -6.5933219    4.7713621 0.0077658888 0.0083217102            4 
   51300   0.76655688   -6.6428571    4.7804467 0.0077655078 0.0083215842            2 
   51400   0.80973908   -6.6552605    4.7834237 0.0077552264  0.008320861           10 
   51500   0.81055345   -6.6215418    4.7740609 0.0077250176 0.0083202071            8 
   51600   0.77777558   -6.6451181    4.7930791 0.0077407607 0.0083194891           12 
   51700   0.80676445    -6.643095    4.8083068 0.0077503333 0.0083187077            9 
   51800    0.7617491   -6.6511111    4.8441731 0.0077930712 0.0083184408           24 
   51900   0.75868284   -6.6024643    4.8682951 0.0078167872 0.0083183517           28 
   52000   0.81482713    -6.650226    4.8748173 0.0078122072 0.0083184405           45 
   52100   0.77936406   -6.6429783    4.8577206 0.0077698665 0.0083179902           29 
   52200   0.81106796    -6.683004    4.8506148 0.0077436378 0.0083174106           43 
   52300   0.81548675   -6.6215344    4.8677245 0.0077560937 0.0083168787           28 
   52400    0.8117865   -6.6060907    4.8784448 0.0077583409 0.0083165445           18 
   52500   0.80081203    -6.627693    4.8912652 0.0077639129 0.0083163731           13 
   52600   0.82420896   -6.6318233    4.9100092 0.0077788485 0.0083161848           17 
   52700   0.76879292   -6.6522427    4.9234862 0.0077853988 0.0083161551           16 
   52800   0.78139748   -6.6848089    4.9571975 0.0078238595 0.0083161652           13 
   52900   0.80397385   -6.6674473    4.9690453 0.0078277335 0.0083163135           24 
   53000   0.78058727   -6.6416775    5.0029953 0.0078663448 0.0083166962           34 
   53100   0.79826248   -6.6381109    5.0507432 0.0079264644 0.0083179439           16 
   53200   0.84826716   -6.6484776    5.0977406 0.0079851826 0.0083199494           17 
   53300   0.78179783   -6.6183956    5.0712697 0.0079288143 0.0083219451           22 
   53400   0.79089325    -6.675345    5.0868257 0.0079382422 0.0083235786           23 
   53500   0.82374294   -6.6623333    5.1275662 0.0079868631 0.0083255188           63 
   53600   0.82799892   -6.6558208    5.1580634 0.0080193771 0.0083279071           40 
   53700   0.76652237   -6.6621021    5.1256107 0.0079540824 0.0083297952           62 
   53800   0.80350706    -6.631275    5.0968089 0.0078946853 0.0083309689           67 
   53900   0.79765868   -6.6671121    5.0895963 0.0078688872 0.0083317258           20 
   54000    0.8130641   -6.6695213    5.0909629 0.0078564242 0.0083321738           21 
   54100    0.7952259   -6.6821385    5.1083726 0.0078687193  0.008332612           13 
   54200    0.8246691   -6.6478005    5.1501764 0.0079184753 0.0083335968           16 
   54300   0.80347371    -6.624884    5.1424788 0.0078920791 0.0083350707           31 
   54400   0.78336739   -6.6362082    5.1524248 0.0078928076 0.0083360246           32 
   54500    0.8191401   -6.7009551    5.1611273 0.0078916318 0.0083368599           14 
   54600   0.77578905   -6.6776327    5.1778916 0.0079027648 0.0083374068           24 
   54700   0.80716654   -6.6832809    5.1758785 0.0078852506 0.0083378024           10 
   54800   0.83371419   -6.6124252    5.1898111 0.0078920484 0.0083384968            8 
   54900   0.82160997   -6.6393978    5.1972853 0.0078890183 0.0083393738           11 
   55000   0.76983526   -6.6440721    5.1897759 0.0078632968 0.0083398473           29 
   55100   0.78402606   -6.6620918    5.1811026 0.0078359083 0.0083399137           25 
   55200   0.82038647   -6.7037327    5.1994318 0.0078493836  0.008339511            5 
   55300   0.77929332   -6.6474135    5.1739958 0.0077968592 0.0083392268            7 
   55400   0.81252137   -6.6318467    5.1843961 0.0077984296 0.0083386446            8 
   55500   0.77937206    -6.662994    5.2375391 0.0078641727 0.0083383948            5 
   55600    0.8115551   -6.6184545    5.2828962 0.0079180099 0.0083388447            4 
   55700    0.7888147   -6.6036382    5.2393507 0.0078386455 0.0083392276            2 
   55800    0.7908336   -6.6144178    5.2696163 0.0078697973 0.0083396576            6 
   55900   0.82515582   -6.6222077    5.2811265 0.0078728778 0.0083401482            4 
   56000   0.79822473   -6.6013542    5.2615286 0.0078296556 0.0083402297            6 
   56100   0.78992236   -6.7032085    5.2949532 0.0078653492 0.0083401891           12 
   56200   0.81854766   -6.6453583    5.3073968 0.0078698054  0.008340243           12 
   56300   0.81579135   -6.6506723    5.2846656 0.0078221811 0.0083403428            8 
   56400   0.78158805   -6.6691687    5.2471697 0.0077529103 0.0083396613           10 
   56500   0.80786765   -6.6709375    5.2487944 0.0077415845 0.0083384783           20 
   56600   0.80350047   -6.6228392    5.2776271 0.0077703578 0.0083376236            7 
   56700   0.77127638   -6.5686943    5.2606003 0.0077316289 0.0083364341            9 
   56800   0.81929963   -6.6276821    5.3300636 0.0078199289 0.0083356858           21 
   56900   0.78959179   -6.6697342    5.3850964 0.0078867843 0.0083355098           35 
   57000   0.78620656   -6.6534665    5.4189327 0.0079224162 0.0083359573           13 
   57100   0.82674783   -6.5932555    5.4678321 0.0079799066 0.0083372316           14 
   57200   0.81557371   -6.6334625    5.4774267 0.0079799339 0.0083388151           25 
   57300   0.76733859   -6.6319097    5.5046767  0.008005638 0.0083405622           14 
   57400   0.77220069   -6.6942628    5.5232794 0.0080186983 0.0083421586           16 
   57500   0.77335902   -6.6269156    5.5089318 0.0079839591 0.0083436547           13 
   57600   0.83042804   -6.6561505    5.5248097 0.0079930695 0.0083448795           20 
   57700   0.78726488   -6.5982305    5.5078698 0.0079547513 0.0083463377            7 
   57800    0.8023779   -6.6091065    5.4620919 0.0078749883 0.0083471562            9 
   57900   0.81212524   -6.6086582    5.4545017 0.0078504629 0.0083476087            7 
   58000   0.84258673   -6.6296329    5.5191486 0.0079298112 0.0083483386           11 
   58100   0.79304128   -6.6929595    5.5744449 0.0079954746 0.0083497309           12 
   58200   0.77018885   -6.6419827    5.5753137 0.0079829805  0.008350945           12 
   58300   0.79707911   -6.6134676     5.590783 0.0079913992 0.0083522949           23 
   58400   0.76347923   -6.6519734    5.5423713 0.0079086347 0.0083530908           13 
   58500   0.77318245   -6.6798535    5.5605886 0.0079210664  0.008353196            8 
   58600   0.78718619   -6.6323682    5.5594149 0.0079058801 0.0083533398            5 
   58700   0.77503846    -6.631084    5.5896297 0.0079353062 0.0083534747            7 
   58800   0.80178702   -6.6423676    5.5721739 0.0078970719 0.0083537474           12 
   58900   0.77337887   -6.6520486    5.5711645 0.0078822361 0.0083538929            9 
   59000   0.82785489   -6.6396158    5.5609885 0.0078545034 0.0083539933            4 
   59100   0.81112174   -6.6456677    5.5972334   0.00789232 0.0083540206            9 
   59200   0.79392097   -6.6231335    5.6514429 0.0079552968 0.0083544481            6 
   59300    0.7698737   -6.6622362     5.641353 0.0079277023 0.0083547627           19 
   59400    0.8172492   -6.6589982    5.6425675 0.0079160599 0.0083548947            5 
   59500   0.77500899   -6.5597994    5.6560717  0.007921669 0.0083553286            5 
   59600   0.79524968   -6.5991945    5.6550239 0.0079069125   0.00835583            6 
   59700   0.79122675   -6.6304859    5.6937329 0.0079477008 0.0083563188            7 
   59800   0.82724462   -6.6782293    5.7145341 0.0079633975 0.0083570362            9 
   59900   0.77827974    -6.636951    5.7423055 0.0079887387 0.0083579081            7 
   60000   0.78579528   -6.6454547    5.7162877 0.0079392884 0.0083585569            9 
   60100   0.78896825   -6.6040874    5.7064101 0.0079123822 0.0083590711            2 
   60200   0.82149581   -6.6333307      5.71979 0.0079177602 0.0083593573            6 
   60300   0.80136365   -6.5964662    5.6687513 0.0078340951 0.0083591443            8 
   60400   0.81055874   -6.6980778     5.671565 0.0078250068 0.0083583853            7 
   60500   0.77658198   -6.7108821    5.6933612 0.0078420952 0.0083573767           10 
   60600    0.8082162    -6.689025    5.6928848 0.0078284994 0.0083563027           16 
   60700   0.81773681   -6.5942367    5.6959388 0.0078197951 0.0083555425            4 
   60800   0.75287383   -6.5900934     5.722884  0.007843865 0.0083551005           17 
   60900   0.81072026   -6.6680211    5.7026594 0.0078033105 0.0083543907            9 
   61000   0.80501413   -6.6607611    5.7315491  0.007829985 0.0083536439            8 
   61100   0.83945521    -6.646107    5.7715737  0.007871759 0.0083533261           15 
   61200   0.81942844   -6.7018448    5.7389869 0.0078145246 0.0083528761            5 
   61300   0.78481785   -6.6926227     5.759958 0.0078302854 0.0083521096           18 
   61400   0.78297397   -6.6689006    5.7380499 0.0077877984 0.0083509064           37 
   61500   0.83391606    -6.725126    5.7349429 0.0077709253 0.0083494711           10 
   61600   0.76216002   -6.6940193    5.7086754 0.0077227752 0.0083477425           11 
   61700   0.80646191   -6.6670705    5.7083002 0.0077097517 0.0083456572            8 
   61800   0.83575124   -6.6617237    5.7104748 0.0077002086  0.008343797           10 
   61900    0.7939562   -6.6722177    5.6918907 0.0076627499 0.0083416358           12 
   62000   0.76271343    -6.658397    5.6996464 0.0076608149 0.0083391376            8 
   62100   0.81200019   -6.6659291    5.7656832 0.0077370949 0.0083371659            5 
   62200   0.81180521   -6.6860955    5.8047439  0.007776988 0.0083355673            2 
   62300   0.78577204   -6.7132775    5.8043074  0.007763921 0.0083340841            5 
   62400   0.82822794   -6.6921903    5.8224401 0.0077756946 0.0083325226            6 
   62500   0.78273072   -6.6023403    5.7970302 0.0077293735 0.0083310213            5 
   62600   0.79537094    -6.679964    5.7942421 0.0077133148 0.0083291723            6 
   62700   0.80225989   -6.6914583    5.7949711 0.0077019818 0.0083271826            9 
   62800    0.8104029   -6.6271081    5.8037362 0.0077013484 0.0083252604           13 
   62900    0.8317534   -6.6312092    5.7927721 0.0076745788 0.0083231411           15 
   63000   0.81440597    -6.634316    5.8048571 0.0076783823 0.0083211718            6 
   63100   0.81748675   -6.6826432    5.8037343 0.0076647309 0.0083188043            6 
   63200   0.81807238   -6.7071105    5.7931564 0.0076386555  0.008316458            6 
   63300   0.77964923   -6.7180319    5.7765462 0.0076047212 0.0083136236            3 
   63400   0.78363395   -6.6526442     5.829153  0.007661873 0.0083110025            5 
   63500    0.7954503   -6.6315017    5.8428525 0.0076677854 0.0083086162            4 
   63600   0.85704369   -6.6409161    5.8346426 0.0076449719  0.008306261            9 
   63700   0.83084156   -6.6050875    5.8486672 0.0076513176 0.0083040962            6 
   63800   0.80460951   -6.6522781    5.8512599 0.0076427114 0.0083016269            4 
   63900   0.78815247   -6.6566863    5.8472285 0.0076254935 0.0082990805            9 
   64000   0.81288673   -6.6983857    5.8761673 0.0076512595 0.0082964644            3 
   64100   0.82671685   -6.6659238     5.957492 0.0077450493 0.0082947557            4 
   64200   0.84538498   -6.6534987    5.9603255 0.0077366633 0.0082933797            3 
   64300   0.80871927   -6.5796381    5.9300654 0.0076854139 0.0082919496            3 
   64400   0.77959955   -6.6004373    5.9455903 0.0076935691 0.0082901273            3 
   64500   0.84522607    -6.686068    5.9942891 0.0077445595  0.008288514            5 
   64600   0.78131522   -6.6469414    6.0476108 0.0078013555 0.0082873691           11 
   64700   0.80254757   -6.6070932    6.0424609 0.0077826646 0.0082865391            4 
   64800   0.80035414   -6.6390218    5.9990992 0.0077148908 0.0082852439            5 
   64900   0.80122257     -6.68291    5.9772751 0.0076749809 0.0082835577            2 
   65000   0.81100777   -6.6664266    5.9971745 0.0076886852  0.008281518            4 
   65100   0.82217428   -6.6684651    5.9943875  0.007673307 0.0082795159            7 
   65200   0.76995142   -6.6465305    5.9765068 0.0076386845 0.0082771573            4 
   65300   0.79330979   -6.6891276    6.0024317 0.0076600711 0.0082745943            6 
   65400   0.80881846   -6.6408378    6.0813387 0.0077489025 0.0082725878            6 
   65500    0.7863559   -6.6441792    6.0566578 0.0077056715 0.0082706678            2 
   65600   0.80653535   -6.6807156    6.0576554 0.0076951922 0.0082687213            4 
   65700   0.75427548   -6.6783334    6.0405684 0.0076618066 0.0082665289            3 
   65800   0.80336045   -6.6789441    6.0613896 0.0076765319 0.0082644061            3 
   65900   0.80198206   -6.6248007    6.0991378 0.0077126173 0.0082626577            2 
   66000   0.82523252   -6.6716385    6.0961958 0.0076972169 0.0082611778            3 
   66100   0.79033294   -6.6801481     6.127938 0.0077255899 0.0082595822            7 
   66200   0.76571428   -6.7009323       6.1994 0.0078038771    0.0082583            9 
   66300   0.82722489   -6.7076703      6.18617 0.0077754776 0.0082573488            7 
   66400   0.80001401    -6.715974    6.1674338 0.0077402532 0.0082562801           10 
   66500   0.78036129   -6.6530128     6.175997 0.0077393446 0.0082549251           14 
   66600    0.8190996   -6.6430426    6.2077638 0.0077674722 0.0082540007           10 
   66700   0.79688904   -6.6284396    6.2189419 0.0077697925 0.0082529538            8 
   66800   0.78398617    -6.669907    6.2159984  0.007754489 0.0082519121           12 
   66900    0.8165347   -6.6411314    6.2561356 0.0077928944 0.0082509969            7 
   67000   0.81969325   -6.6028251    6.3096285 0.0078477966 0.0082504843            6 
   67100   0.81449353   -6.6520922    6.3511102 0.0078876182 0.0082503314           11 
   67200    0.7712833   -6.6301913    6.3291593 0.0078486598 0.0082499513            8 
   67300   0.78682616    -6.666228    6.3327337 0.0078414235 0.0082495606            4 
   67400   0.82073622   -6.6593353    6.3405038 0.0078393963 0.0082492651            9 
   67500   0.77482009   -6.6393802    6.3401555 0.0078273524 0.0082488968            7 
   67600   0.79403977   -6.6145249    6.3975772 0.0078865596 0.0082488588            1 
   67700   0.80539842   -6.6463001    6.4197188 0.0079021649 0.0082491413            3 
   67800   0.80872099   -6.7247434    6.4292267  0.007902196 0.0082493651            5 
   67900   0.81534448   -6.6391872     6.491715 0.0079672496 0.0082500271            4 
   68000   0.80772091   -6.6499187    6.5112792 0.0079795088 0.0082509816            5 
   68100   0.77039043   -6.6545014    6.5069815 0.0079625323 0.0082518121            7 
   68200    0.7583717   -6.6904943    6.4962571  0.007937753 0.0082523114            4 
   68300   0.78115871   -6.6547832    6.5209469 0.0079562553 0.0082526276            5 
   68400   0.80630434   -6.6527836    6.4962926 0.0079145865 0.0082530409            2 
   68500   0.77714317    -6.656416    6.4605458 0.0078595447 0.0082530035           14 
   68600   0.82534766   -6.6303397    6.4691863 0.0078585838 0.0082528314            6 
   68700   0.80415752   -6.6026207    6.4821954  0.007862925 0.0082527115            2 
   68800   0.79374282   -6.6786634    6.4850084 0.0078549035 0.0082524828            9 
   68900   0.78095858   -6.6214953    6.4554374 0.0078077375 0.0082519948            6 
   69000   0.78540102   -6.6528995      6.50085 0.0078512681 0.0082513911           10 
   69100   0.77931207   -6.6555377    6.5201231 0.0078631489 0.0082510485           20 
   69200   0.84777714   -6.6906088     6.568216 0.0079097013 0.0082510185           18 
   69300   0.78182281   -6.6756602    6.5887418 0.0079229699 0.0082511507           17 
   69400   0.77369517   -6.6048453    6.5780166  0.007898675 0.0082514642            9 
   69500   0.78474642   -6.6737701    6.5656905 0.0078725305 0.0082515495            6 
   69600   0.79206769   -6.6972711    6.6126613 0.0079174584  0.008251586            7 
   69700    0.8452427    -6.702656    6.6557608 0.0079576289 0.0082521435            5 
   69800   0.78081053   -6.6863264    6.6112848 0.0078931289 0.0082524959            7 
   69900   0.84600887   -6.7055451    6.6116291 0.0078822473 0.0082524303           12 
   70000   0.80735399   -6.6566587    6.6215061 0.0078827453 0.0082526201            9 
   70100   0.80855329   -6.7095176    6.6487691 0.0079039099 0.0082528794            6 
   70200   0.81230571   -6.6659031    6.6821308 0.0079322539 0.0082533354            4 
   70300   0.82974244   -6.6673948    6.6990504 0.0079410269 0.0082538699            3 
   70400   0.80490445   -6.7110494    6.6934843 0.0079231585 0.0082543323           12 
   70500   0.80708612   -6.7021024    6.6920886 0.0079102702 0.0082546982            3 
   70600   0.83311148   -6.6833084    6.6925281 0.0078995846 0.0082548762            5 
   70700   0.79522763   -6.6852741    6.6605468 0.0078507152 0.0082549841           10 
   70800   0.82236254   -6.6568371     6.668713 0.0078492384 0.0082547914           10 
   70900   0.80126926   -6.7102253    6.6674571 0.0078366914 0.0082542214            7 
   71000   0.79800959   -6.6864535    6.6750113 0.0078345203 0.0082536647           10 
   71100    0.8064999   -6.6878145    6.6915213 0.0078428519 0.0082531626            3 
   71200   0.77115609   -6.5496979    6.6768064 0.0078146142 0.0082525194            9 
   71300   0.80838841   -6.6479312    6.6688267 0.0077943276  0.008251847            9 
   71400    0.7731323   -6.6813085    6.6837163 0.0078007893 0.0082508473            9 
   71500   0.79884214   -6.6832435    6.6987089  0.007807353 0.0082498081            7 
   71600   0.74336629   -6.6580178    6.7070586 0.0078061669   0.00824887           13 
   71700   0.78461726    -6.611772    6.7077817   0.00779612 0.0082477168           12 
   71800   0.79969478   -6.5976586    6.6935336 0.0077687251 0.0082467285            8 
   71900   0.80384576   -6.6436634    6.6777227 0.0077395951 0.0082456385           10 
   72000   0.81044084   -6.6557568    6.6789538 0.0077302705  0.008244357           13 
   72100   0.79167363   -6.5951957    6.7601506 0.0078133964 0.0082434363           15 
   72200   0.80062336   -6.6380298     6.772816 0.0078171929 0.0082428029            8 
   72300   0.77940899    -6.645414    6.7434693 0.0077725557 0.0082417565            8 
   72400   0.77600412   -6.7345306    6.7706692 0.0077931275 0.0082406283           20 
   72500   0.79570415   -6.6599826    6.8045719 0.0078213469 0.0082397074           17 
   72600   0.82949889   -6.6959592     6.835681 0.0078462821 0.0082392087           25 
   72700   0.82464343   -6.6361138     6.835539 0.0078353267 0.0082388452           17 
   72800   0.78759707   -6.6501493    6.8594136 0.0078518928 0.0082387372           23 
   72900   0.79848111   -6.6130122    6.8772033 0.0078614577 0.0082384994           40 
   73000   0.82807454   -6.6592567    6.8865933 0.0078614078 0.0082382955           19 
   73100   0.78911755   -6.6701477    6.9052226 0.0078718907 0.0082379001           19 
   73200   0.84377195    -6.661724    6.8879066 0.0078414237 0.0082375539           23 
   73300   0.76074079   -6.5955431    6.9300831 0.0078786756 0.0082374223           13 
   73400   0.78654087   -6.5882665    7.0452879 0.0079987373 0.0082378336            9 
   73500   0.78817462   -6.6519634    7.1064968 0.0080572526 0.0082388135           15 
   73600   0.76084709   -6.6227128    7.0533131 0.0079860881   0.00823972            9 
   73700   0.80578805   -6.6137905    7.0679333 0.0079917834 0.0082405622           15 
   73800   0.80741499   -6.6453151    7.0899366    0.0080058 0.0082414554           13 
   73900   0.76750038   -6.5597523    7.0541661 0.0079546302 0.0082420562           12 
   74000    0.7756044   -6.6666767    7.0589195 0.0079492336 0.0082423533            5 
   74100   0.80355992   -6.6848482    7.0951464 0.0079792469 0.0082427736           12 
   74200   0.77969211   -6.6297171    7.1016651 0.0079758143 0.0082432888           19 
   74300   0.80886834   -6.5997374    7.0601172 0.0079184805 0.0082436547            8 
   74400   0.80596798   -6.5775799    7.0703978 0.0079193523  0.008244004           10 
   74500   0.78404073   -6.6324362    7.1012408 0.0079432223 0.0082444839           17 
   74600    0.8244066   -6.6067932    7.1116147  0.007944163 0.0082450615            6 
   74700   0.80608157   -6.6133494    7.1080203 0.0079295183 0.0082454695            6 
   74800   0.75857592   -6.6530761    7.1028874  0.007913199 0.0082455385           11 
   74900   0.80606545   -6.6517074    7.0973598 0.0078964839 0.0082453533           10 
   75000   0.82387156   -6.6161684     7.164689 0.0079607655 0.0082455351           14 
   75100   0.81101046   -6.5862244    7.1463209 0.0079297835 0.0082458976           18 
   75200   0.80499106   -6.5746545    7.1103986 0.0078794311  0.008246052            9 
   75300   0.88513033   -6.5801454    7.1069112 0.0078651075 0.0082460303           15 
   75400   0.81150844   -6.5905399    7.1614302 0.0079149316 0.0082461494           18 
   75500   0.78733438   -6.6367372    7.1702834 0.0079142201 0.0082462878           22 
   75600   0.82263366   -6.6359253    7.2267633 0.0079660089 0.0082465467            8 
   75700   0.80773989   -6.5783768    7.2437908 0.0079742303 0.0082471906            5 
   75800   0.83734004    -6.646188    7.2322074 0.0079509755 0.0082477578           10 
   75900   0.81233616   -6.6620934    7.2491681 0.0079591217 0.0082481033           11 
   76000   0.76808182   -6.6645707    7.2303984 0.0079280684 0.0082482985           19 
   76100   0.81159078   -6.6614769    7.2785884 0.0079704209 0.0082486324           21 
   76200   0.80043209   -6.6305851    7.3197647 0.0080049919 0.0082492239           36 
   76300   0.78587735   -6.6418571     7.316549 0.0079909883 0.0082500284           42 
   76400   0.82332619   -6.6353369    7.3001248 0.0079626143 0.0082506593           39 
   76500   0.79710211   -6.6230673    7.3290276 0.0079836901  0.008251328           24 
   76600   0.79901034   -6.7172392    7.3235169 0.0079672724 0.0082518879           28 
   76700   0.77997373   -6.6157918    7.4154441 0.0080567623 0.0082524446           16 
   76800   0.78529308   -6.6147519    7.4048018 0.0080347241 0.0082534329           18 
   76900   0.77569509   -6.6233952    7.4060935 0.0080256756 0.0082543266            6 
   77000   0.85012501   -6.6618334    7.4091166 0.0080185244 0.0082550394            9 
   77100    0.7732759   -6.6278804    7.3919695 0.0079895909 0.0082557971           14 
   77200   0.83115371   -6.6982843    7.3935186 0.0079809139 0.0082563473           12 
   77300   0.77951005   -6.6771432    7.4011303  0.007978795 0.0082568997           11 
   77400   0.81544001   -6.6608534    7.4234537 0.0079925212 0.0082574384           13 
   77500   0.80072449   -6.6811937    7.4310161 0.0079903398 0.0082579056           21 
   77600    0.7641441   -6.6752909    7.3586796 0.0079023621 0.0082580343           26 
   77700   0.78602398   -6.6199522     7.351324 0.0078843028 0.0082576711           30 
   77800   0.83399352   -6.6603326     7.379059 0.0079038764  0.008257645           21 
   77900   0.78566173   -6.6289816    7.4013302 0.0079175547 0.0082576053           12 
   78000    0.8411998   -6.6347333    7.4176141 0.0079248013 0.0082576946           15 
[...]
   82800    0.7867549   -6.5867241    7.7605061 0.0078104932 0.0082235627           10 
   82900   0.80976267    -6.631941    7.7474828 0.0077879803 0.0082225377            6 
   83000   0.77518233   -6.6568384    7.7384726 0.0077695508 0.0082213191            8 
   83100    0.7975597   -6.6937429    7.7869058 0.0078087703 0.0082200359            5 
   83200   0.80501155   -6.5944443    7.8113329  0.007823851 0.0082191018           14 
   83300   0.81755313   -6.5963473    7.7705137 0.0077736231 0.0082181856            8 
   83400   0.79971269   -6.5905185    7.7650542  0.007758847 0.0082170341           10 
   83500   0.81453788   -6.6203392    7.7829879  0.007767453 0.0082159176            9 
   83600   0.78168092   -6.6721065    7.7963837 0.0077715149 0.0082146766           11 
   83700   0.81938465   -6.6545626    7.7802609 0.0077461777 0.0082132315            6 
   83800   0.80630954   -6.6356768    7.7623908 0.0077191635 0.0082117539            4 
   83900   0.79939646   -6.6393839    7.7145408 0.0076624362 0.0082099655           11 
   84000   0.77860007   -6.6880515    7.7411205  0.007679683 0.0082079251           10 
   84100   0.79082481   -6.6163205    7.7740498 0.0077031805 0.0082060647            8 
   84200   0.82544144   -6.6546513    7.7894759 0.0077092992 0.0082043207            8 
   84300   0.81345959   -6.6560929    7.8066467  0.007717128 0.0082027682            2 
   84400   0.78000678   -6.6434551    7.7620825 0.0076639835 0.0082010519            2 
   84500   0.79262331    -6.661712    7.7791264 0.0076717222 0.0081991447            4 
   84600   0.80540175   -6.6187361    7.8769029 0.0077589665 0.0081976831            4 
   84700   0.82309393   -6.6874215    7.8715347 0.0077445245 0.0081963865            5 
   84800   0.75464861   -6.6393604    7.7999298 0.0076650253 0.0081946457            4 
   84900   0.84850665   -6.6633364    7.7859187 0.0076422445 0.0081927946            8 
   85000   0.79327613   -6.6279961     7.804692 0.0076516588 0.0081909355           11 
   85100   0.82208471   -6.6431762    7.8565102 0.0076934098 0.0081892127            5 
   85200   0.79730136   -6.6693539    7.8577022 0.0076855459 0.0081874931            5 
   85300    0.7508085   -6.6579352    7.8766565 0.0076950532 0.0081856675           11 
   85400   0.82806933   -6.6995577    7.8815737 0.0076908408 0.0081837224            7 
   85500   0.77277282   -6.6613903    7.8323233 0.0076338433 0.0081816926            7 
   85600   0.79563553   -6.6881057    7.8723793 0.0076639206 0.0081797314            5 
   85700   0.78996767   -6.6079085    7.8886584 0.0076708074 0.0081778998           12 
   85800   0.83054224   -6.5914285    7.9130122 0.0076855208 0.0081761629            4 
   85900   0.78956906   -6.6210018    7.9111978 0.0076748135 0.0081744456            7 
   86000    0.7518068   -6.6539617    7.9387989 0.0076926346  0.008172479           10 
   86100   0.79775313   -6.7108256    8.0119028 0.0077544548  0.008170765           26 
   86200   0.80145018   -6.6902791    8.0030738 0.0077369236 0.0081691519           17 
   86300   0.80065223   -6.7128647    7.9418133 0.0076688038 0.0081674629            6 
   86400   0.80594807   -6.7040146    7.9720328 0.0076890748 0.0081658179           12 
   86500   0.80526459   -6.6082713    8.0076108 0.0077144612 0.0081644359           10 
   86600    0.8038865     -6.65025    8.0121128 0.0077098852 0.0081631141            8 
   86700   0.78301753    -6.662254    7.9946951 0.0076842513 0.0081616588           10 
   86800   0.80405975   -6.6335402    8.0619353 0.0077399532 0.0081602911            9 
   86900   0.80241445   -6.6316352    8.0748627 0.0077434433 0.0081591305           11 
   87000   0.78053817   -6.6920629     8.089049 0.0077481312 0.0081578636           14 
   87100   0.80589957   -6.6344552    8.0971544 0.0077469904 0.0081566471           11 
   87200   0.81700589   -6.5951435    8.0853402 0.0077268159  0.008155534           23 
   87300   0.86682177   -6.6114794    8.0622999 0.0076959716 0.0081544503           13 
   87400   0.79776047   -6.6197752    8.0440711 0.0076697855 0.0081531625            7 
   87500   0.83237697   -6.6524407    8.0747429 0.0076902312 0.0081517952           13 
   87600   0.80028886   -6.6461165    8.1025536 0.0077079086 0.0081504002           23 
   87700   0.82063392   -6.6946149    8.1168625 0.0077127162 0.0081488823           20 
   87800   0.81634028   -6.6794988    8.1087616  0.007696243 0.0081473106           27 
   87900    0.8031712     -6.58555    8.1397525 0.0077168681 0.0081458888           27 
   88000   0.80868076   -6.5590526    8.1539752 0.0077215673 0.0081447062            8 
   88100   0.79446102   -6.6155684    8.1358981 0.0076957038 0.0081433776            6 
   88200   0.79530069   -6.6583191    8.1816115 0.0077301696 0.0081420878            7 
   88300   0.81715424    -6.708968    8.2018649 0.0077405293 0.0081408353            5 
   88400   0.81835243   -6.6592966    8.1824939 0.0077135123 0.0081395384            7 
   88500    0.8123104   -6.6254261    8.1841987 0.0077064017 0.0081381981            5 
   88600   0.78588517   -6.6735368     8.217851 0.0077293557 0.0081368854            3 
   88700   0.80859874   -6.5790588    8.2542933 0.0077548791 0.0081357037            1 
   88800   0.84993917   -6.6121084    8.3321962 0.0078192531 0.0081350803            9 
   88900   0.80759372    -6.632026    8.3121639 0.0077916796 0.0081344168            4 
   89000   0.80440419   -6.6012519    8.2991939 0.0077707808 0.0081337764            7 
   89100   0.85744425   -6.5984308    8.3273733 0.0077884149 0.0081331463            9 
   89200    0.7913413   -6.6029547    8.3648436 0.0078146894 0.0081327169           28 
   89300   0.82392965   -6.6470261    8.4033607 0.0078418819 0.0081324155           23 
   89400   0.78957603    -6.655539    8.4103868 0.0078396596 0.0081319956           40 
   89500   0.76039822   -6.6688477    8.3767388 0.0077995705 0.0081311928           12 
   89600   0.79241821   -6.6627926     8.395285 0.0078081147 0.0081304106            5 
   89700   0.81684356   -6.6199193    8.3579265 0.0077647031 0.0081296571            7 
   89800   0.76250669   -6.6308101    8.3322703 0.0077322478 0.0081286846            5 
   89900   0.78176497   -6.6132809    8.3215486 0.0077137084 0.0081275187            6 
   90000   0.84065029   -6.6509274    8.3547813 0.0077359086 0.0081264119            9 
   90100   0.82860714   -6.6579098    8.3905876 0.0077604398 0.0081254467            4 
   90200   0.76839498   -6.6477994    8.3754812 0.0077378798 0.0081244185           10 
   90300   0.82024046   -6.6579319    8.4157192 0.0077664444 0.0081234199            9 
   90400   0.80362977   -6.6643829    8.4348775 0.0077755139 0.0081226385            9 
   90500   0.79637142   -6.6591646    8.3924149 0.0077278222 0.0081217463            5 
   90600     0.798943   -6.6298835    8.4297303  0.007753615 0.0081207751            6 
   90700   0.84289851   -6.6646393    8.4708804 0.0077828743 0.0081200236            9 
   90800   0.79106166    -6.706881    8.4476069 0.0077529432 0.0081190141           13 
   90900   0.77434159   -6.6408126    8.4452997 0.0077422989  0.008117963            8 
   91000   0.84444595   -6.6452169    8.4682604 0.0077548172  0.008117092           14 
   91100   0.79615225   -6.6368879    8.4672083 0.0077453423 0.0081162763            8 
   91200   0.82843484   -6.6573983    8.4887409 0.0077565249 0.0081154643            9 
   91300   0.78417215    -6.593526    8.5087835  0.007766323 0.0081147282            4 
   91400   0.80117636   -6.6745547    8.5460787 0.0077918295 0.0081139912           11 
   91500   0.79120199   -6.6991807    8.5418833 0.0077794929 0.0081132742            8 
   91600   0.81107996   -6.6828391    8.5362532 0.0077658781 0.0081126007            7 
   91700   0.80653596   -6.6842149    8.5472728 0.0077674234 0.0081117807            9 
   91800   0.82838425   -6.7552539    8.5517966 0.0077630687  0.008111027            5 
   91900   0.80237581   -6.6238005    8.5788052 0.0077791124 0.0081103027           15 
   92000   0.77951045    -6.597913    8.5505867 0.0077450966 0.0081093482           14 
   92100   0.77791761   -6.6899858    8.5189583 0.0077080693 0.0081082253            8 
   92200   0.81093664   -6.6847278    8.5331648 0.0077125495 0.0081070633            6 
   92300   0.80331949   -6.6457575    8.5632154 0.0077313248 0.0081059338           15 
   92400   0.77611837   -6.6594312    8.5415991 0.0077034624 0.0081048623           45 
   92500   0.80623363    -6.677497    8.5336508 0.0076879736 0.0081035955           39 
   92600   0.82891258   -6.6890835    8.5646388 0.0077075583 0.0081024355           44 
   92700   0.80148481   -6.5943976    8.5710301 0.0077049893 0.0081012642           43 
   92800    0.8149059   -6.5963508    8.5892119 0.0077130135 0.0081001388           41 
   92900   0.79323771   -6.6685908    8.5772013 0.0076939373 0.0080989214           10 
   93000   0.79527549   -6.6986726     8.631021 0.0077338897 0.0080976428           20 
   93100   0.77496377   -6.6003975    8.6271154 0.0077220868 0.0080965655           15 
   93200   0.77938917   -6.6166309    8.5950571 0.0076851368 0.0080954005           16 
   93300    0.7695121   -6.6588463    8.5943892 0.0076763032 0.0080940924           15 
   93400   0.82163609   -6.6714845    8.6686645 0.0077343545 0.0080929032           13 
   93500   0.80015024   -6.6514233    8.6661537 0.0077238446 0.0080918757           12 
   93600   0.80294939   -6.6837152    8.6210116  0.007675402 0.0080906821           21 
   93700   0.80719544   -6.6434179     8.611559 0.0076588037 0.0080892274           27 
   93800    0.8134381   -6.6569343    8.6198392  0.007657995 0.0080878246           36 
   93900   0.76891239    -6.651972    8.6064891 0.0076379917 0.0080863416           24 
   94000   0.81271073   -6.6523393    8.7129407 0.0077242382 0.0080850277           24 
   94100   0.77851521   -6.6561987    8.7154843 0.0077182822 0.0080837679           32 
   94200   0.78947401   -6.6641521    8.7496607 0.0077403226 0.0080826838           14 
   94300   0.78777019   -6.6210136    8.7566648  0.007738304 0.0080816341           12 
   94400   0.82674317   -6.6820878    8.7495094 0.0077237901 0.0080808304           35 
   94500   0.82031575   -6.6313622    8.7542484 0.0077197958 0.0080799171           14 
   94600   0.80327599   -6.5943514    8.7894618 0.0077426549 0.0080790579           20 
   94700   0.80136879   -6.6828194    8.7129534 0.0076671536 0.0080779075           20 
   94800   0.79848802   -6.6641773    8.7358279 0.0076791736 0.0080765482           27 
   94900   0.81061735   -6.6819185    8.7539814 0.0076870227 0.0080752906           13 
   95000   0.80724268   -6.6700731    8.7675839  0.007690863 0.0080740285            9 
   95100    0.8291956   -6.5948433    8.7524363 0.0076695025 0.0080727975           10 
   95200   0.78949918   -6.6179002    8.7609389  0.007668889  0.008071599           13 
   95300   0.81740262   -6.6464022    8.8162127 0.0077091751 0.0080704908           19 
   95400   0.80727352   -6.6567126    8.8585776 0.0077381006 0.0080696167           14 
   95500   0.78071292   -6.6932631    8.8843491 0.0077524861 0.0080687908            9 
   95600   0.81458841   -6.6556241    8.9148274 0.0077709444 0.0080681022            9 
   95700   0.80313167   -6.6188379    8.8594806 0.0077146295 0.0080673327            7 
   95800   0.76626736   -6.6745098      8.90214 0.0077436847 0.0080664323            6 
   95900   0.76626487   -6.6794606    8.9593521  0.007785325 0.0080655625            7 
   96000   0.77853498   -6.6326454    8.9650526 0.0077821636 0.0080648761            3 
   96100   0.77506181   -6.6452777    8.9600873   0.00776976 0.0080641592            5 
   96200   0.78586682   -6.6444924    8.9497942 0.0077527669  0.008063373            5 
   96300   0.80282662   -6.6289529    8.9302137 0.0077277723 0.0080624993            4 
   96400   0.79980062   -6.5933818    8.9025667 0.0076958564 0.0080614821            4 
   96500   0.79111232   -6.6369376    8.8633322 0.0076540001 0.0080602959            3 
   96600   0.78384476   -6.6543151    8.8870227 0.0076665136 0.0080589093           12 
   96700   0.80855532   -6.6253549    8.8850353 0.0076568729 0.0080575552            3 
   96800   0.77615766     -6.63998    8.9107639 0.0076711121 0.0080562959            4 
   96900   0.81433764   -6.7079463    8.9007358 0.0076545715 0.0080548896            5 
   97000   0.79898592   -6.6691785     8.926323 0.0076686623 0.0080534848            3 
   97100   0.76936759   -6.5926348    8.9928855   0.00771789 0.0080523421            5 
   97200   0.78668964   -6.5974399     8.982397 0.0077009576 0.0080514005            3 
   97300   0.79475692   -6.6649208    8.9882821 0.0076980833 0.0080504051           13 
   97400   0.81255882   -6.6747068    8.9880289 0.0076899631 0.0080494073            7 
   97500    0.7650964   -6.6835158    9.0135549  0.007703893  0.008048297            7 
   97600   0.79409668   -6.6449784    9.0936133 0.0077643555 0.0080473332            4 
   97700   0.77498211   -6.5996699     9.106897 0.0077677388 0.0080466855            3 
   97800    0.8019965   -6.7220157    9.0715677 0.0077296929 0.0080458309            6 
   97900   0.81062266   -6.6558445    9.0492498 0.0077028002 0.0080448436           11 
   98000    0.8270434    -6.637092    9.0165896  0.007667168 0.0080437721            6 
   98100    0.8269113    -6.620431    9.0509542 0.0076885442 0.0080427746            4 
   98200   0.80304115   -6.6523273    9.0812462 0.0077064207 0.0080419608            8 
   98300   0.78098613   -6.6913267    9.1211186 0.0077323827 0.0080411341            6 
   98400   0.79687818   -6.6883457     9.157778 0.0077555708 0.0080403654           12 
   98500   0.80361843   -6.6648405    9.1384357 0.0077313331  0.008039591           15 
   98600   0.80439595   -6.6664546    9.1230486 0.0077104873 0.0080386775            9 
   98700   0.76707318   -6.6914844    9.1438273 0.0077202189 0.0080377478           14 
   98800   0.80380235   -6.6498558    9.1928674  0.007753768  0.008036926            9 
   98900   0.80831772    -6.651364    9.2200622 0.0077688424 0.0080363383           13 
   99000   0.77133918   -6.6511571    9.2192703 0.0077603285 0.0080357414           15 
   99100   0.84268151   -6.6642783    9.2781073 0.0078019738 0.0080352573            6 
   99200   0.79838509     -6.61092    9.2603462 0.0077791886 0.0080348213            9 
   99300     0.771541   -6.6378187    9.1943741 0.0077159903 0.0080341597           14 
   99400   0.78975079   -6.6789768    9.2160442 0.0077263952 0.0080333624           32 
   99500   0.81929122   -6.6917833     9.241472 0.0077399263 0.0080325713           13 
   99600   0.82336507   -6.6289811    9.2248249 0.0077182269 0.0080317711           12 
   99700   0.78575219   -6.6166479    9.1823613 0.0076749927 0.0080308107           22 
   99800   0.80913035   -6.6361953    9.1797691 0.0076651378 0.0080297702           14 
   99900   0.85193369   -6.6407277    9.2354602 0.0077039208 0.0080287358           15 
  100000   0.79211508   -6.6591915    9.2636773  0.007719731  0.008027931           33 
  100100    0.8379501   -6.7082522    9.2479968  0.007698965  0.008027043            9 
  100200    0.7725936   -6.6249645     9.281881 0.0077194619 0.0080261881           14 
  100300   0.78316508   -6.5919245    9.3131974 0.0077377845 0.0080254277           15 
  100400   0.75575425   -6.6153723     9.322331 0.0077376585 0.0080246807           16 
  100500   0.77162563   -6.6368835    9.3007973 0.0077121039 0.0080237717           28 
  100600   0.79771427   -6.6163235    9.3971188 0.0077842269 0.0080232024           30 
  100700   0.80398872   -6.6359886    9.4153984 0.0077916239 0.0080228811           33 
  100800   0.79460804   -6.6845878    9.4166634 0.0077849399 0.0080224238           43 
  100900     0.739546   -6.6706475    9.4055788 0.0077680697 0.0080219306           48 
  101000    0.7569766   -6.6016934    9.4468877 0.0077944618 0.0080214632           53 
  101100   0.78663888   -6.6488627    9.4230933 0.0077671392 0.0080209162           53 
  101200   0.74823688   -6.6532378    9.4016067 0.0077417709  0.008020235           60 
  101300   0.79139555   -6.6995033    9.4333139 0.0077602121 0.0080195648           39 
  101400   0.81244892   -6.6315476    9.4462807 0.0077632156 0.0080190138           53 
  101500   0.77974013   -6.6255421    9.4106062 0.0077262777 0.0080184931           41 
  101600   0.82697567   -6.6632286    9.4775501 0.0077735811 0.0080180077           32 
  101700   0.77692255   -6.6148323    9.4717751 0.0077612054 0.0080176048           40 
  101800   0.80234672   -6.6963697    9.4657874 0.0077486799 0.0080169067           15 
  101900   0.83594591   -6.6631697    9.4513581 0.0077292754 0.0080161775           22 
  102000   0.77781312   -6.6361465     9.545552 0.0077986535 0.0080156626            5 
  102100   0.76662475   -6.6687091    9.5496814 0.0077943857 0.0080151951           47 
  102200   0.80206967   -6.6853731    9.5356876 0.0077753486 0.0080146851           20 
  102300   0.75656362   -6.6802708    9.5157607 0.0077515157 0.0080140242            8 
  102400   0.80935692   -6.6901312    9.4790398 0.0077140623 0.0080132281           30 
  102500   0.80810478   -6.6507349    9.4577778 0.0076892502  0.008012294           11 
  102600    0.7836581   -6.6758089    9.4817207 0.0077012026 0.0080114186           18 
  102700   0.81974256   -6.7096761    9.5424453 0.0077429774 0.0080106152           17 
  102800   0.79854289   -6.5859015    9.5700617 0.0077578321 0.0080101791            2 
  102900   0.76890235   -6.5773146     9.557803 0.0077403652 0.0080095893            7 
  103000   0.73770508   -6.6393677    9.5749441 0.0077467185 0.0080090053           10 
  103100   0.76159087   -6.6181387    9.6433036 0.0077944581 0.0080085031            5 
  103200   0.81880307   -6.6634976    9.7045811 0.0078363865 0.0080082502            6 
  103300   0.78767344   -6.6342397    9.6842843 0.0078124268 0.0080081224            3 
  103400   0.80674364   -6.5986326    9.6769868   0.00779899 0.0080078581            5 
  103500   0.78205633   -6.5860716    9.7137331 0.0078210411 0.0080077985            8 
  103600   0.76763081   -6.6210413    9.6886508 0.0077933163 0.0080076037            4 
  103700   0.77836606   -6.6661695     9.647885 0.0077530416 0.0080070692            9 
  103800   0.80854497   -6.6659891    9.6806122 0.0077718466 0.0080065736            7 
  103900   0.83276713   -6.6342358    9.7202678 0.0077961724 0.0080062886            3 
  104000   0.80375659   -6.6256314     9.732975 0.0077988582 0.0080061158           11 
Loop time of 192.412 on 12 procs for 100000 steps with 864 atoms

Performance: 89807.117 tau/day, 519.717 timesteps/s
99.4% CPU use with 12 MPI tasks x no OpenMP threads

MPI task timing breakdown:
Section |  min time  |  avg time  |  max time  |%varavg| %total
---------------------------------------------------------------
Pair    | 9.595      | 10.379     | 10.902     |  10.9 |  5.39
Neigh   | 0.915      | 0.95299    | 0.9882     |   2.2 |  0.50
Comm    | 7.2976     | 8.2632     | 9.1925     |  16.2 |  4.29
Output  | 2.7252     | 2.7263     | 2.7337     |   0.1 |  1.42
Modify  | 167.9      | 168.22     | 169.02     |   2.4 | 87.43
Other   |            | 1.872      |            |       |  0.97

Nlocal:        72.0000 ave          80 max          68 min
Histogram: 2 1 5 1 0 1 0 1 0 1
Nghost:        1582.00 ave        1602 max        1560 min
Histogram: 2 0 0 0 4 1 2 1 0 2
Neighs:        8249.08 ave        9615 max        7716 min
Histogram: 3 4 1 1 2 0 0 0 0 1
FullNghs:      16498.4 ave       18380 max       15542 min
Histogram: 2 1 5 1 0 1 0 1 0 1

Total # of neighbors = 197981
Ave neighs/atom = 229.14468
Neighbor list builds = 4967
Dangerous builds = 0

#clear
#
#next RN
#
#jump SELF



Total wall time: 0:03:13
