
units lj                  # Use reduced LJ style units
atom_style atomic         # Uncharged point particles
atom_modify map hash      # Needed for indexing of clusters etc
                          # Used to be able to find where atoms are in relation to each other.

# Define a lattice with which to populate the simulation cell. With units
# set to 'lj' the second argument to the lattice command is the reduced
# density rho* and the spacings are multiples of that required to acheive
# that density. Also define a simulation cell called 'box' in lattice units
# and fill it with atoms. Here we're creating a box which is ten lattice
# constants in each direction.
lattice fcc 1.0 spacing 1 1 1                 # All equal sizes - gives the right reduced density.
Lattice spacing in x,y,z = 1.5874011 1.5874011 1.5874011

region box block 0 6 0 6 0 6 units lattice # Defines a region, "box", in lattice units
create_box 1 box                              # Creates a simulation box as specified above,
Created orthogonal box = (0.0000000 0.0000000 0.0000000) to (9.5244063 9.5244063 9.5244063)
  2 by 2 by 3 MPI processor grid
                                              # with one type of atom
create_atoms 1 box                            # Creates particles on lattice points
Created 864 atoms
  using lattice units in orthogonal box = (0.0000000 0.0000000 0.0000000) to (9.5244063 9.5244063 9.5244063)
  create_atoms CPU = 0.001 seconds


# Set the mass of the first (and only) atom type.
mass 1 1.0

# Lennard-Jones interactions between particles, 3.5 sigma cut-off. Apply
# long range tail corrections to energy and pressure and set all coefficients
# to unity since we work in reduced units here. Note that this doesn't shift
# the potential such that it goes to zero at the cutoff. That would require
# pair_modify('shift', 'yes').
pair_style lj/cut  3.5      # non-GPU version
pair_modify tail  yes
pair_coeff 1  1  1.0  1.0   # Intearaction between 1 and 1 set with epsilon = 1 and sigma = 1

write_data data.*
System init for write_data ...
Neighbor list info ...
  update every 1 steps, delay 10 steps, check yes
  max neighbors/atom: 2000, page size: 100000
  master list distance cutoff = 3.8
  ghost atom cutoff = 3.8
  binsize = 1.9, bins = 6 6 6
  1 neighbor lists, perpetual/occasional/extra = 1 0 0
  (1) pair lj/cut, perpetual
      attributes: half, newton on
      pair build: half/bin/atomonly/newton
      stencil: half/bin/3d
      bin: standard

#############################
#   M E L T   S Y S T E M   #
#############################

velocity all create 2.4 2750902 mom yes dist gaussian # Assign velocities
                                                    # Temperature 2.4, random number seed, zero linear momentum
						                                                        # Gaussian distribution

timestep 0.002   # simulation timestep
thermo 100       # output thermodynamic data every 100 steps

# Define a fix  in this case with index 1 applied to all
# particles in the simulation. This fix is for simulations
# in the anisotropic NPT ensemble. Note that we use the MTK
# correction.
fix 1 all npt temp 2.4 2.4 0.1 iso 5.68 5.68 0.5 mtk yes tchain 5 pchain 5 # Use NPT ensemble
                                                                         # Set temperature and pressure and damping
                                                                         # Numbers of thermostats in chain and in barostat
run 1000         # run for 10000 steps
Per MPI rank memory allocation (min/avg/max) = 3.633 | 3.633 | 3.634 Mbytes
Step Temp E_pair E_mol TotEng Press Volume 
       0          2.4   -8.3859253            0    -4.790092     -2.24275          864 
     100    1.3007594   -6.4407842            0   -4.4919034    5.3582762    891.69205 
     200    1.5828213   -6.0796178            0   -3.7081338    6.4338598    907.46239 
     300    1.7629056     -5.73851            0   -3.0972122    5.5953229    954.02439 
     400    1.8733232   -5.2785237            0   -2.4717912    6.0585808    994.36537 
     500      2.02574   -4.9360708            0   -1.9009777    5.7478153    1042.8978 
     600    2.2112838   -4.6895875            0   -1.3765009    5.7138268    1079.0368 
     700    2.3146746   -4.4629638            0  -0.99497044    5.6088298    1118.0222 
     800    2.4734008     -4.39503            0   -0.6892229    5.7937797    1123.7282 
     900    2.4206618   -4.2767239            0  -0.64993368    5.5531987    1146.9555 
    1000    2.3618098   -4.2459295            0  -0.70731524    5.7000582    1143.3852 
Loop time of 0.18993 on 12 procs for 1000 steps with 864 atoms

Performance: 909809.243 tau/day, 5265.100 timesteps/s
99.8% CPU use with 12 MPI tasks x no OpenMP threads

MPI task timing breakdown:
Section |  min time  |  avg time  |  max time  |%varavg| %total
---------------------------------------------------------------
Pair    | 0.067416   | 0.079746   | 0.090384   |   2.5 | 41.99
Neigh   | 0.011856   | 0.013248   | 0.01442    |   0.7 |  6.98
Comm    | 0.06714    | 0.079093   | 0.092474   |   2.8 | 41.64
Output  | 0.00021836 | 0.00022849 | 0.00027367 |   0.0 |  0.12
Modify  | 0.015545   | 0.015968   | 0.016279   |   0.2 |  8.41
Other   |            | 0.001645   |            |       |  0.87

Nlocal:        72.0000 ave          80 max          66 min
Histogram: 2 1 2 2 1 0 2 0 0 2
Nghost:        1314.75 ave        1327 max        1295 min
Histogram: 1 0 0 2 3 0 0 1 2 3
Neighs:        6211.67 ave        7136 max        5326 min
Histogram: 2 0 0 2 1 4 1 0 0 2

Total # of neighbors = 74540
Ave neighs/atom = 86.273148
Neighbor list builds = 80
Dangerous builds = 2

# Equilibrate just above the melting temperature to avoid step fn in T

fix 1 all npt temp 1.25 1.25 0.1 iso 5.68 5.68 0.5 mtk yes tchain 5 pchain 5
run 1000
Per MPI rank memory allocation (min/avg/max) = 3.634 | 3.634 | 3.634 Mbytes
Step Temp E_pair E_mol TotEng Press Volume 
    1000    2.3618098   -4.2459295            0  -0.70731524    5.7000582    1143.3852 
    1100    1.8617945   -4.5967525            0    -1.807293    5.9593679    1083.5566 
    1200      1.66126   -5.0091582            0   -2.5201524    5.9308167    1028.0056 
    1300    1.4533368   -5.3154554            0   -3.1379734    5.5185254    997.93023 
    1400    1.3100587   -5.5224566            0    -3.559643    5.2858775     978.0358 
    1500    1.3306301   -5.7450087            0   -3.7513736    5.2687861    956.68836 
    1600    1.2302857    -5.777427            0   -3.9341343     5.385203    950.58576 
    1700    1.2545134   -5.8251615            0   -3.9455694    5.6370291    940.07281 
    1800    1.2669685   -5.8434457            0   -3.9451925    6.1076728    931.13358 
    1900    1.2975362   -5.8185374            0   -3.8744858    5.5765884    942.23221 
    2000    1.2225624   -5.8503078            0   -4.0185867    5.1330896    948.19804 
Loop time of 0.167265 on 12 procs for 1000 steps with 864 atoms

Performance: 1033091.841 tau/day, 5978.541 timesteps/s
99.9% CPU use with 12 MPI tasks x no OpenMP threads

MPI task timing breakdown:
Section |  min time  |  avg time  |  max time  |%varavg| %total
---------------------------------------------------------------
Pair    | 0.071372   | 0.077394   | 0.088587   |   1.7 | 46.27
Neigh   | 0.0098854  | 0.010513   | 0.011569   |   0.4 |  6.29
Comm    | 0.050708   | 0.062685   | 0.069079   |   2.1 | 37.48
Output  | 0.00018637 | 0.00019246 | 0.00022377 |   0.0 |  0.12
Modify  | 0.014234   | 0.014622   | 0.014924   |   0.2 |  8.74
Other   |            | 0.001858   |            |       |  1.11

Nlocal:        72.0000 ave          79 max          65 min
Histogram: 1 1 0 4 0 1 1 3 0 1
Nghost:        1466.08 ave        1476 max        1447 min
Histogram: 1 1 0 0 2 0 0 4 1 3
Neighs:        7466.67 ave        8131 max        6694 min
Histogram: 1 0 2 0 3 1 3 0 0 2

Total # of neighbors = 89600
Ave neighs/atom = 103.70370
Neighbor list builds = 67
Dangerous builds = 0


# Small amount of linear quench

fix 1 all npt temp 1.25 ${temp} 0.1 iso 5.68 5.68 0.5 mtk yes tchain 5 pchain 5
fix 1 all npt temp 1.25 0.6 0.1 iso 5.68 5.68 0.5 mtk yes tchain 5 pchain 5
run 2000
Per MPI rank memory allocation (min/avg/max) = 3.634 | 3.634 | 3.634 Mbytes
Step Temp E_pair E_mol TotEng Press Volume 
    2000    1.2225624   -5.8503078            0   -4.0185867    5.1330896    948.19804 
    2100    1.2363523   -5.8701821            0      -4.0178    5.3904373    940.87858 
    2200    1.2072755   -5.9211574            0   -4.1123402    5.7282123    929.18664 
    2300    1.1779431   -5.9359287            0    -4.171059    6.3298472    917.37187 
    2400    1.1588946   -5.9927181            0   -4.2563882    5.8513669    920.44429 
    2500    1.0704723   -6.0257426            0   -4.4218925    5.9212238    914.05737 
    2600    1.0522357   -6.1068222            0   -4.5302954    5.7080128    910.64254 
    2700    1.0618788   -6.1941204            0   -4.6031458     5.465821    908.05712 
    2800   0.96891951    -6.143398            0   -4.6917008    5.9434658    903.64569 
    2900   0.96063216   -6.2300494            0   -4.7907689    5.7838948    897.42571 
    3000   0.95968651   -6.3020184            0   -4.8641547    5.9952124    890.11678 
    3100   0.89257805   -6.2596658            0   -4.9223483    6.2387442    887.08328 
    3200   0.85338938   -6.3327229            0   -5.0541205    5.8770602     887.0646 
    3300   0.83645025   -6.4010717            0   -5.1478485    5.9832646     880.0661 
    3400   0.79742497   -6.4544304            0   -5.2596773      5.90851    876.23009 
    3500   0.79791442   -6.5754495            0   -5.3799632    5.6639606     870.3755 
    3600   0.75935837   -6.6003897            0   -5.4626705    5.9530847    864.37075 
    3700   0.73630477   -6.6519349            0   -5.5487561    5.9705784    859.44039 
    3800   0.69970081   -6.7217449            0   -5.6734085     5.698075    857.76827 
    3900   0.63793892   -6.7526886            0   -5.7968878    5.4754228    857.73887 
    4000   0.59879929   -6.8072299            0   -5.9100706    5.3174204    855.59307 
Loop time of 0.357884 on 12 procs for 2000 steps with 864 atoms

Performance: 965675.345 tau/day, 5588.399 timesteps/s
99.9% CPU use with 12 MPI tasks x no OpenMP threads

MPI task timing breakdown:
Section |  min time  |  avg time  |  max time  |%varavg| %total
---------------------------------------------------------------
Pair    | 0.15836    | 0.17209    | 0.19951    |   2.7 | 48.09
Neigh   | 0.016774   | 0.017709   | 0.019878   |   0.6 |  4.95
Comm    | 0.1049     | 0.13395    | 0.14819    |   3.3 | 37.43
Output  | 0.00038302 | 0.00039766 | 0.00046416 |   0.0 |  0.11
Modify  | 0.028256   | 0.029157   | 0.029856   |   0.3 |  8.15
Other   |            | 0.004578   |            |       |  1.28

Nlocal:        72.0000 ave          78 max          68 min
Histogram: 2 0 2 1 3 1 0 2 0 1
Nghost:        1586.75 ave        1597 max        1573 min
Histogram: 1 1 1 1 0 2 2 1 0 3
Neighs:        8348.75 ave        9317 max        7348 min
Histogram: 1 2 1 1 0 2 1 2 1 1

Total # of neighbors = 100185
Ave neighs/atom = 115.95486
Neighbor list builds = 106
Dangerous builds = 0

#############################
# F R E E Z E  S Y S T E M  #
#############################

# Define solid atoms. This closely follows ten Wolde  Ruiz-Montero and Frenkel  Faraday Discuss  1996  104  93-110
# Compute components of the per-atom q6 vector
compute q6 all orientorder/atom degrees 1 6 components 6 nnn NULL cutoff 1.3 # compute the Q6 parameter.
                                                                             # Use all neighbours within 1.3 unit cell.

# get number of connections
compute coord_number all coord/atom orientorder q6 0.5

# An atom is solid if it has 8 or more connections (of a possible 14)
variable is_solid atom c_coord_number>=8
group solid dynamic all var is_solid    # Must be dynamic to update
dynamic group solid defined

# do clustering
compute cluster solid cluster/atom 1.3 # Create a cluster where all atoms within are solid and max 1.3 units from another member

# define chunks one chunk per cluster
compute clus_chunks solid chunk/atom c_cluster nchunk every compress yes  # Says which atoms are in which chunk

# count the size of each chunk
compute size_chunks solid property/chunk clus_chunks count


# Find the maximum entry in the vector of chunk sizes
variable max_n equal max(c_size_chunks)


# Thermo style which includes this variable
# thermo_style custom step temp pe vol v_max_n

thermo ${N}  # Print the thermo information every 100 steps
thermo 100  

# Reset the npt fix at a lower temperature (below freezing)

compute myRDF all rdf 100
fix 2 all ave/time 1 50 100 c_myRDF[*] file pcf.rdf mode vector


compute msd all msd com yes
variable twopoint equal c_msd[4]/6/(step*dt+1.0e-6)
fix 9 all vector 10 c_msd[4]
variable fit equal slope(f_9)/6/(10*dt)
thermo_style custom step temp pe c_msd[4] v_twopoint v_fit v_max_n


fix 1  all npt temp  ${temp} ${temp}  0.1  iso  5.68  5.68  0.5  mtk yes tchain  5  pchain  5
fix 1  all npt temp  0.6 ${temp}  0.1  iso  5.68  5.68  0.5  mtk yes tchain  5  pchain  5
fix 1  all npt temp  0.6 0.6  0.1  iso  5.68  5.68  0.5  mtk yes tchain  5  pchain  5

dump dmp2 all dcd ${N} traj.dcd
dump dmp2 all dcd 100 traj.dcd
dump dmp3 all dcd ${N} traj_unwrap.dcd
dump dmp3 all dcd 100 traj_unwrap.dcd
dump_modify dmp3 unwrap yes


# fix rnuntil all halt ${N} v_max_n >= 3980 error soft message no   # Stop when solidified

run 100000 # 5000000  # Run for this many steps
Neighbor list info ...
  update every 1 steps, delay 10 steps, check yes
  max neighbors/atom: 2000, page size: 100000
  master list distance cutoff = 3.8
  ghost atom cutoff = 3.8
  binsize = 1.9, bins = 5 5 5
  5 neighbor lists, perpetual/occasional/extra = 1 4 0
  (1) pair lj/cut, perpetual
      attributes: half, newton on
      pair build: half/bin/atomonly/newton
      stencil: half/bin/3d
      bin: standard
  (2) compute orientorder/atom, occasional
      attributes: full, newton on
      pair build: full/bin/atomonly
      stencil: full/bin/3d
      bin: standard
  (3) compute coord/atom, occasional
      attributes: full, newton on
      pair build: full/bin/atomonly
      stencil: full/bin/3d
      bin: standard
  (4) compute cluster/atom, occasional
      attributes: full, newton on
      pair build: full/bin/atomonly
      stencil: full/bin/3d
      bin: standard
  (5) compute rdf, occasional, copy from (1)
      attributes: half, newton on
      pair build: copy
      stencil: none
      bin: none
Per MPI rank memory allocation (min/avg/max) = 9.703 | 9.706 | 9.708 Mbytes
Step Temp PotEng c_msd[4] v_twopoint v_fit v_max_n 
    4000   0.59879929   -6.8072299 1.5804609e-30 3.2926265e-32 8.3333333e+20            2 
    4100   0.62478755   -6.8840341  0.027030414 0.00054939859   0.02474405            9 
    4200   0.59031339   -6.8786016  0.044251988 0.00087801553  0.019458183            5 
    4300   0.59721776   -6.9093309  0.053649081 0.0010397107  0.015009174            2 
    4400   0.57184289   -6.8966978  0.062261577 0.0011791964  0.012545545            7 
    4500   0.62818626   -6.9101888  0.067821232 0.0012559486  0.010562056            5 
    4600   0.61257104    -6.922496  0.076059157 0.0013778831 0.0093567565            9 
    4700   0.60983779   -6.9372641  0.080613174 0.0014293114 0.0085097553           12 
    4800   0.55745614   -6.9204102  0.086588361   0.00150327 0.0078230915            8 
    4900   0.55978882   -6.9412211  0.092352561 0.0015706216 0.0072595192            7 
    5000    0.6301266    -6.958236  0.099920583 0.0016653429 0.0069205724           16 
    5100   0.61978689   -6.9390004   0.10615854 0.0017346165 0.0066949426            4 
    5200   0.57397977   -6.9724089   0.11090689 0.0017773539 0.0064774478           10 
    5300   0.61222206   -6.9834548   0.11149176  0.001753015 0.0061886692            6 
    5400    0.6135842   -6.9547249   0.11727428  0.001809788 0.0059008551            9 
    5500   0.58853285   -6.9529176   0.12373757 0.0018748114 0.0057210485           10 
    5600    0.6132727   -6.9562911   0.12939992 0.0019255939 0.0055599876            7 
    5700    0.5909543   -6.9445936   0.13563634 0.0019829872 0.0054700645            9 
    5800   0.61161267   -6.9657844   0.13713733 0.0019703638 0.0053402956           16 
    5900   0.59145948   -6.9457457   0.13787009 0.0019473176 0.0051862444           10 
    6000   0.59638537   -6.9957239   0.13746225 0.0019091978 0.0049943154           17 
    6100   0.61289214   -6.9958462   0.14610491 0.0019959685 0.0048417635           14 
    6200   0.62619006    -6.974999   0.14944113 0.0020086172 0.0047337758           14 
    6300   0.59970473   -7.0135098   0.15137054 0.0020022556 0.0046140236           53 
    6400   0.60946455   -6.9516081   0.15576627 0.0020282065 0.0045060897           46 
    6500   0.61204191   -6.9972358   0.15988167 0.0020497649 0.0044059958           39 
    6600    0.5908307   -6.9619498   0.16205146 0.0020461042 0.0043240971           19 
    6700   0.58621505   -6.9663893   0.16603206 0.0020650752  0.004235917           16 
    6800   0.59980118   -6.9834446   0.17180362 0.0021054363 0.0041627552           31 
    6900    0.6059377   -6.9435857   0.17620799 0.0021281157 0.0041049858           34 
    7000   0.62393093   -7.0300786   0.17693334 0.0021063491 0.0040476216           47 
    7100   0.60422443   -6.9952157   0.17974196 0.0021096472 0.0039853951           21 
    7200   0.57586789   -7.0037938     0.183642 0.0021254859 0.0039331437           38 
    7300   0.61419875   -6.9633651   0.18330759 0.0020925523 0.0038660202           13 
    7400   0.59640601   -7.0047428   0.19030081  0.002143027 0.0038110018           19 
    7500   0.60265987   -6.9751033   0.19381464 0.0021534959 0.0037665978           24 
    7600   0.61509659   -6.9335407   0.19571259 0.0021459713 0.0037236131           18 
    7700   0.59246806   -6.9806823   0.19777743 0.0021404482  0.003675728           17 
    7800   0.62872406   -7.0117353   0.19847583 0.0021204681 0.0036249669           13 
    7900   0.58355943   -6.9824324   0.20784215 0.0021924276 0.0035857452           19 
    8000   0.60467948   -7.0400619   0.21401785 0.0022293525 0.0035615321           23 
    8100   0.61823984     -6.93756   0.21829342 0.0022458169 0.0035451874           27 
    8200   0.60720532   -6.9678094   0.21691241 0.0022043943 0.0035195603           47 
    8300   0.60531161   -7.0180589   0.22025246   0.00221137 0.0034901922           54 
    8400   0.57532861   -6.9857573   0.22243727 0.0022067188 0.0034604948           73 
    8500    0.6198945   -7.0099906   0.22423548 0.0021983869 0.0034308043           70 
    8600   0.59520578   -7.0331133   0.22324114 0.0021631892 0.0033954791           85 
    8700    0.5842052   -6.9820659   0.23506143 0.0022515461 0.0033664818           74 
    8800   0.61888247    -6.974954   0.25112055 0.0023780354 0.0033645719           80 
    8900   0.60233943   -7.0617845   0.25483984 0.0023861407 0.0033766245           67 
    9000   0.59204242   -7.0085638   0.25563165 0.0023669596 0.0033786988           61 
    9100   0.57493194   -7.0405863   0.25886535 0.0023705617 0.0033776888           67 
    9200   0.60286521    -7.042726    0.2574586 0.0023320524 0.0033730419           70 
    9300   0.56247199   -6.9851804   0.25004761 0.0022405698 0.0033542198           73 
    9400   0.57769902   -7.0011147   0.24456564  0.002168135 0.0033180099           73 
    9500   0.56422506   -7.0332067   0.25427363 0.0022304703 0.0032837623           83 
    9600   0.61498216   -7.0070592   0.25670391 0.0022283324 0.0032554456           94 
    9700   0.59563262    -7.037246   0.26406333 0.0022685852 0.0032325081          100 
    9800   0.61301154   -7.0675378   0.26635586 0.0022649307 0.0032133344          115 
    9900   0.61724178   -7.0538162   0.26534662 0.0022335573 0.0031912166          118 
   10000   0.64382996   -7.0681859   0.25987282 0.0021656067 0.0031613924          101 
   10100   0.63302074   -6.9995452    0.2634841 0.0021739611 0.0031285849           90 
   10200   0.59989127   -7.0274122   0.26877102 0.0021958415 0.0031003371           99 
   10300   0.59301647   -7.0382508   0.27106702 0.0021930988 0.0030747182          114 
   10400    0.5797898   -7.0027442   0.26898816 0.0021553538 0.0030458972          116 
   10500   0.61493053   -7.0443539   0.27580081 0.0021888952 0.0030188065          105 
   10600    0.6271452   -7.0252251   0.27803979 0.0021858473 0.0029951085           86 
   10700   0.60078076   -7.0008874   0.28683493 0.0022339168 0.0029744728           91 
   10800   0.58866318   -7.0169889   0.29172378  0.002250955 0.0029624527          116 
   10900   0.63512187   -7.0768152   0.29390052 0.0022469458 0.0029476057          102 
   11000   0.58028433   -7.0241031    0.2985229  0.002261537 0.0029364831           98 
   11100   0.59394546   -7.0389673   0.29750073 0.0022334888 0.0029231888          109 
   11200   0.60634206   -7.0147763   0.30367524 0.0022594883 0.0029109813           89 
   11300   0.57730027   -6.9577484   0.30599135 0.0022565733 0.0028993467          105 
   11400   0.64511531    -7.077104   0.30502092  0.002229685 0.0028860639          106 
   11500   0.59796224    -7.038794   0.31150272  0.002257266 0.0028736128           99 
   11600   0.58742003   -6.9678511   0.32122976 0.0023076849 0.0028668007          110 
   11700   0.60884218   -7.0545639   0.32378899 0.0023061893 0.0028619359          110 
   11800   0.56911275   -7.0084125   0.33017467 0.0023317419 0.0028584049           93 
   11900   0.59214826   -7.0105901   0.33793784 0.0023665114 0.0028569292           84 
   12000   0.60196697   -6.9934326   0.33642155 0.0023362607 0.0028568804           92 
   12100   0.61125801   -7.0489042    0.3396165 0.0023389565 0.0028533296           96 
   12200   0.60518497      -7.0567   0.34318465 0.0023441574 0.0028515199          113 
   12300   0.58720212   -6.9859063   0.33981863 0.0023022942 0.0028477066          122 
   12400   0.58534328   -7.0001702   0.34375428 0.0023101765 0.0028410195          108 
   12500   0.56429214   -7.0102711   0.33750281 0.0022500186 0.0028302623           94 
   12600   0.59767559   -7.0139167   0.33781683 0.0022342382 0.0028191197           76 
   12700   0.58800929   -7.0301589   0.33059895 0.0021692844 0.0028018387          104 
   12800   0.60873504   -6.9921189   0.33578153 0.0021860776 0.0027834131          123 
   12900   0.60886782    -7.026134   0.33116199 0.0021392893 0.0027640831          114 
   13000   0.57525691   -7.0082746   0.33090704 0.0021211989 0.0027431628          127 
   13100   0.58839928   -7.0483939    0.3440841 0.0021888301 0.0027260155          120 
   13200   0.57366606   -7.0599276    0.3487263 0.0022015549 0.0027127174          131 
   13300   0.61043072   -7.0447895    0.3537174 0.0022162743 0.0027013291          117 
   13400   0.60090324    -7.042489   0.34656366 0.0021552465 0.0026882369          151 
   13500   0.60939551   -7.1107543   0.34235258 0.0021132875 0.0026705957          153 
   13600   0.57362889   -7.0747546   0.35104642 0.0021510196 0.0026537859          157 
   13700   0.59866393   -6.9966234   0.35497356 0.0021592065 0.0026402783          146 
   13800   0.61016698   -7.0644448   0.35777319  0.002160466 0.0026270612          100 
   13900   0.56594828   -7.0282563   0.35073163 0.0021027076 0.0026115118          100 
   14000   0.59779289   -7.0197059   0.35042599 0.0020858689 0.0025937082          104 
   14100   0.60415449   -7.0473314   0.34675163 0.0020493594 0.0025740104          100 
   14200   0.57704429   -7.0269586   0.34491862 0.0020241702 0.0025530102          104 
   14300   0.63255545   -7.0114023   0.34022405 0.0019826576 0.0025305325           89 
   14400   0.60023453   -7.0218712   0.35097144 0.0020310847 0.0025096153          110 
   14500   0.59745406   -7.0584163   0.36300431 0.0020862316 0.0024935756          118 
   14600   0.63088632   -7.0719576   0.37197566 0.0021231486 0.0024821883          123 
   14700   0.58749395   -7.0714487   0.37680399  0.002136077 0.0024731253          138 
   14800   0.58532599   -7.0426909   0.37738473 0.0021249139 0.0024629291           98 
   14900   0.60487034   -7.0101752   0.37254899 0.0020836073 0.0024521779          108 
   15000   0.62179668   -7.0951118   0.36544245 0.0020302358 0.0024375432          122 
   15100   0.60646826   -7.0601313   0.37109749 0.0020479993 0.0024230382          113 
   15200   0.59771658   -7.0345752   0.37182416 0.0020385096 0.0024090485          122 
   15300   0.61959172   -7.0332261   0.37347388 0.0020341714 0.0023957171           97 
   15400   0.57383808   -6.9814852   0.37974877 0.0020549175 0.0023828006          112 
   15500   0.61802093     -7.07337   0.38328077 0.0020606492 0.0023724149          104 
   15600   0.60123788   -7.0309668   0.37231194 0.0019888457 0.0023595987          121 
   15700   0.58505303   -7.0537068   0.36457628 0.0019351182 0.0023425516          139 
   15800   0.61311914   -7.0489587   0.36660629 0.0019335774 0.0023238278          126 
   15900    0.5927243    -7.044559   0.37244053 0.0019519944 0.0023073215          139 
   16000   0.58097359    -7.050847   0.37970762 0.0019776438 0.0022927761          143 
   16100   0.60460605   -6.9978157   0.38790892 0.0020078101 0.0022813201          156 
   16200    0.5843015   -7.0272078   0.38446611 0.0019777063 0.0022695944          162 
   16300   0.57139025   -7.0426497   0.38726978 0.0019799068 0.0022568238          149 
   16400   0.62412501   -7.0567918   0.38771733 0.0019701083 0.0022449715          152 
   16500   0.60485061   -7.0348102   0.39201327 0.0019798649 0.0022336986          132 
   16600   0.58261147    -7.041482   0.39700354 0.0019929896 0.0022233583          147 
   16700   0.61435053   -7.0684278   0.39838569 0.0019879525 0.0022136997          130 
   16800   0.59125676   -7.0628898   0.39479966 0.0019583316 0.0022031823          145 
   16900    0.5973746   -7.0604377   0.39706545 0.0019579164 0.0021923414          161 
   17000   0.59586084   -7.0213345   0.38954528 0.0019095356 0.0021800761          139 
   17100   0.58582568    -7.073029   0.38402759 0.0018714794 0.0021659246          167 
   17200   0.61451641   -7.0863074   0.38903426 0.0018848559 0.0021521148          173 
   17300   0.62264246   -7.0260603   0.39003311 0.0018787722 0.0021390405          148 
   17400   0.59110679   -7.0739403   0.38213631 0.0018301547 0.0021243454          166 
   17500   0.56460654   -7.0518278   0.38058521 0.0018123105  0.002108033          176 
   17600   0.62176781   -7.0603122   0.37949078 0.0017968313 0.0020919109          177 
   17700   0.60676525   -7.0843655   0.37860502 0.0017825094 0.0020756826          173 
   17800   0.58016926   -7.0682976   0.37930506 0.0017757727  0.002058765          171 
   17900   0.61258227   -7.0448837   0.38309065  0.001783476 0.0020432554          171 
   18000   0.59691492   -7.0700436   0.38665135 0.0017900525 0.0020283653          185 
   18100   0.59764447   -7.0539309   0.39531016 0.0018200283 0.0020150005          197 
   18200   0.59388255   -7.0788045   0.39954556  0.001829421 0.0020029789          200 
   18300   0.60545816   -7.0621039   0.39721118  0.001808794 0.0019919182          182 
   18400   0.60176421    -7.022874   0.39928749 0.0018083672 0.0019801448          166 
   18500   0.62936671    -7.043487   0.39926307 0.0017984822 0.0019683146          172 
   18600   0.61481082   -7.0871702   0.40406909 0.0018103453 0.0019574718          184 
   18700   0.57459733   -7.1122566   0.40793384 0.0018178869  0.001947307          185 
   18800    0.6104367   -7.0426959   0.40159453 0.0017801176 0.0019363527          190 
   18900   0.62960601   -7.0808361   0.40247556 0.0017745835 0.0019249596          180 
   19000   0.59611837   -7.0587323   0.40382259 0.0017711516 0.0019142507          192 
   19100   0.59734352   -7.0470393   0.41041414 0.0017906376 0.0019034207          181 
   19200   0.59534596   -7.0167866   0.41243739 0.0017900928 0.0018946716          174 
   19300   0.60682417   -7.0734879   0.40544941 0.0017506451 0.0018844934          175 
   19400   0.61551971    -7.090086   0.40551354 0.0017418966 0.0018731886          202 
   19500   0.60182021   -7.0636783   0.40613855 0.0017356348 0.0018624755          185 
   19600   0.61853202   -7.0443109   0.41061816 0.0017458255 0.0018519034          197 
   19700   0.61601934   -7.0360543   0.41397509 0.0017511636 0.0018424639          171 
   19800   0.57309562   -7.0585585   0.41439773 0.0017440981 0.0018331478          201 
   19900   0.59178403    -7.034172    0.4183325 0.0017518111 0.0018238603          218 
   20000   0.58257578   -7.0340568   0.43158432  0.001798268 0.0018167722          186 
   20100   0.59574009   -7.0652716   0.42979466 0.0017819015 0.0018104345          181 
   20200   0.60713238   -7.0878985   0.43316518  0.001786985 0.0018038309          192 
   20300    0.5848466   -7.0260347   0.44022584 0.0018071668 0.0017981446          174 
   20400   0.58417957   -7.0291219   0.43724354 0.0017861255 0.0017926118          195 
   20500   0.61003962   -7.0769846   0.43620324 0.0017731838 0.0017863581          216 
   20600   0.60112644   -7.0847718   0.44121521 0.0017848511 0.0017804807          184 
   20700    0.6231281   -7.0772869    0.4488454  0.001806946 0.0017757033          197 
   20800   0.61058407   -7.0565584   0.45042232 0.0018045765 0.0017714846          193 
   20900   0.59138263   -7.0690033   0.44703937 0.0017824536 0.0017668468          205 
   21000    0.6054048    -7.070626   0.44665737 0.0017724498 0.0017617129          244 
   21100   0.59854669   -7.0513275   0.44193535 0.0017454003 0.0017556072          220 
   21200   0.59453219   -7.0692526   0.44526004  0.001750236  0.001749487          255 
   21300   0.59776035    -7.076004   0.45289065 0.0017718726 0.0017440352          239 
   21400   0.60589136   -7.0872588   0.46393087 0.0018065843 0.0017403623          262 
   21500   0.60394874   -7.0409023   0.46545677  0.001804096 0.0017372129          269 
   21600   0.61420131   -7.0947306   0.47447582 0.0018305394 0.0017348563          249 
   21700   0.57623698   -7.0527227   0.47004853 0.0018051018 0.0017326813          230 
   21800   0.60876895   -7.0595872   0.46289968 0.0017694941 0.0017286566          256 
   21900   0.58515075   -7.0740502   0.46058542 0.0017526081 0.0017242838          235 
   22000   0.58746982   -7.1075483   0.46141093 0.0017477686 0.0017193053          249 
   22100   0.59511222   -7.0322501   0.46270527 0.0017447408 0.0017146456          280 
   22200   0.60515112   -7.0614587   0.46649312 0.0017511003 0.0017102644          247 
   22300   0.62824427    -7.059899   0.46538673 0.0017391133 0.0017057271          250 
   22400   0.58851974   -7.0657935   0.46345744  0.001724172 0.0017010719          267 
   22500   0.59822695   -7.0877542    0.4652494 0.0017231459 0.0016957579          283 
   22600   0.57725784   -7.0871012    0.4758526 0.0017546187 0.0016914182          265 
   22700   0.59691627   -7.0766744   0.47638428 0.0017488409 0.0016879146          274 
   22800   0.61370144   -7.0567402   0.47978213 0.0017535896 0.0016843673          294 
   22900   0.57444753   -7.0717054   0.48286168 0.0017571385 0.0016811408          271 
   23000   0.62863529   -7.0470121   0.47582658 0.0017240093 0.0016772372          293 
   23100   0.58202768   -6.9938031   0.47673917 0.0017198382 0.0016728307          302 
   23200   0.58808027   -7.0878488   0.47623498 0.0017106141 0.0016685462          269 
   23300   0.58145461   -7.0552226   0.47219508 0.0016888236 0.0016637252          311 
   23400   0.61943433   -7.0424176   0.46924132 0.0016710873 0.0016582942          310 
   23500   0.59959107    -7.048744   0.47017695 0.0016672941 0.0016523474          314 
   23600   0.60845763   -7.1228197   0.47565356 0.0016795676 0.0016472669          337 
   23700   0.59183693   -7.0726303   0.49080899   0.00172577 0.0016432119          324 
   23800   0.60281471   -7.0590292   0.51037851 0.0017870396 0.0016413107          330 
   23900   0.58474984   -7.0551847   0.52344017 0.0018251052 0.0016414456          303 
   24000   0.61165406   -7.0787046   0.52478627 0.0018221745 0.0016419277          315 
   24100   0.60791739   -7.0346179   0.52648602  0.001820491 0.0016424916          304 
   24200   0.58005669   -7.0292263   0.52688149 0.0018143302 0.0016425203          315 
   24300   0.59934866    -7.060979   0.52225283 0.0017909905 0.0016423678          317 
   24400   0.59097406   -7.0544928   0.51508694 0.0017591767 0.0016412634          342 
   24500   0.59946346   -7.1092595   0.51710028 0.0017588444 0.0016394817          372 
   24600   0.58781226   -7.1318553   0.51536155 0.0017458047 0.0016375187          420 
   24700   0.60854882   -7.0935299    0.5220589 0.0017613323  0.001636099          427 
   24800   0.61035807    -7.090767   0.53070154 0.0017832713 0.0016352879          404 
   24900   0.57114847   -7.0860204   0.52690167 0.0017633924 0.0016342373          339 
   25000   0.62132213   -7.0621327   0.52381528 0.0017460509 0.0016326655          402 
   25100    0.5905659    -7.097651   0.53244986 0.0017677618 0.0016313751          391 
   25200   0.61675799   -7.0326205   0.52872613 0.0017484329 0.0016298523          402 
   25300   0.59029809   -7.0761553   0.53990638 0.0017783477 0.0016290425          412 
   25400   0.56524776   -7.0855003   0.53728822 0.0017627566 0.0016283063          425 
   25500    0.6034008   -7.0674904   0.54002384 0.0017647838 0.0016273853          440 
   25600   0.60713879   -7.0700291    0.5495574 0.0017889238 0.0016269983          448 
   25700   0.59701604   -7.1274226   0.54345665 0.0017621811 0.0016263691          443 
   25800   0.58405403   -7.1334773   0.55980134 0.0018081438  0.001626159          457 
   25900   0.62421163   -7.1120169   0.56300923  0.001811484 0.0016268786          442 
   26000   0.59376898   -7.1229234   0.56794816 0.0018203466 0.0016279291          428 
   26100   0.58401248   -7.1092734   0.56132593 0.0017922283 0.0016284634          453 
   26200   0.60059579   -7.1240382    0.5681306 0.0018070311 0.0016286537          478 
   26300   0.60334484   -7.0914264   0.58486217 0.0018531754 0.0016300778          466 
   26400   0.61808985     -7.08224   0.59762799  0.001886452 0.0016326457          411 
   26500   0.59260477   -7.0943484   0.60587855 0.0019052784 0.0016360943          437 
   26600   0.61363885    -7.151752   0.60049112 0.0018812378  0.001639339          465 
   26700   0.57334682   -7.1206189    0.6026111 0.0018808087  0.001642141          465 
   26800   0.60058184   -7.0938431   0.59749871  0.001857894 0.0016444963          449 
   26900   0.63563154   -7.0987278   0.60046567 0.0018601786 0.0016464739          486 
   27000    0.6046208   -7.1184571   0.59879198 0.0018481234 0.0016482332          471 
   27100   0.60820589   -7.0932487   0.60605454 0.0018636363 0.0016501138          466 
   27200   0.63553123   -7.1149996   0.60723672 0.0018604066 0.0016522397          456 
   27300   0.58529663   -7.1218875   0.61156708 0.0018668104 0.0016541583          492 
   27400   0.61106427   -7.1356554   0.61508989 0.0018707113  0.001656332          465 
   27500   0.60742722   -7.0515233   0.62721771 0.0019006597 0.0016589883          448 
   27600   0.61523552   -7.1692319   0.63144771  0.001906545 0.0016619214          460 
   27700   0.61972567    -7.130389    0.6410068 0.0019284199  0.001665633          491 
   27800   0.59461026   -7.1701316   0.63028526 0.0018893443 0.0016687888          537 
   27900   0.59687284   -7.1677071   0.62857196  0.001877455  0.001670992          557 
   28000   0.59475353   -7.1303919   0.63886181 0.0019013744 0.0016736094          553 
   28100   0.61733261   -7.1211808   0.63687262 0.0018887088  0.001676265          550 
   28200   0.59334346   -7.1425309   0.63438659 0.0018746648 0.0016782441          563 
   28300   0.59691664   -7.1547148   0.64890953 0.0019108054 0.0016807608          542 
   28400   0.59614307   -7.1431253   0.63858007 0.0018737678 0.0016833816          555 
   28500   0.60391873   -7.1908695   0.64467219 0.0018850064 0.0016854973          582 
   28600   0.59922282   -7.1810869   0.63471176 0.0018493932 0.0016869498          598 
   28700   0.59458252   -7.1705897   0.63636756 0.0018477571 0.0016880755          580 
   28800   0.59550719   -7.1328928   0.63951607 0.0018504516 0.0016891846          560 
   28900   0.58422306   -7.1643025   0.63604249 0.0018340325 0.0016900084          602 
   29000   0.61309807   -7.1718329   0.65184521 0.0018731184 0.0016913316          603 
   29100   0.60962631   -7.1183437   0.65464835 0.0018747089 0.0016931059          612 
   29200   0.58935188   -7.1901795   0.66163384 0.0018882244 0.0016950904          622 
   29300   0.60314517   -7.1640066    0.6691669  0.001903205 0.0016975316          655 
   29400   0.60065349   -7.1465979   0.67654387 0.0019176413  0.001700245          638 
   29500   0.64176397   -7.1410187   0.67827213 0.0019160229 0.0017030807          624 
   29600   0.62097464   -7.1812432    0.6863631 0.0019323285 0.0017061336          632 
   29700   0.59681791   -7.1859436    0.6760861 0.0018969868 0.0017089657          629 
   29800   0.61101163   -7.1843228   0.68257933 0.0019087789 0.0017110726          660 
   29900   0.60922306   -7.1697907   0.69110434 0.0019261547  0.001713937          650 
   30000   0.57227923   -7.2092557   0.69949036 0.0019430288 0.0017168866          655 
   30100   0.59568168   -7.1622253   0.71170765 0.0019703977 0.0017204277          635 
   30200   0.66499535   -7.1816067   0.71252156 0.0019661191 0.0017242604          673 
   30300   0.60858155    -7.161497   0.71079557 0.0019548833 0.0017279808          680 
   30400   0.60659321   -7.2250698   0.70646564 0.0019365834 0.0017310707          682 
   30500    0.5772588   -7.1867686   0.70871876   0.00193639 0.0017337977          690 
   30600    0.5861181   -7.2245162   0.71365802 0.0019435131 0.0017367807          700 
   30700   0.57612435   -7.2509979   0.70641473  0.001917521 0.0017393966          708 
   30800   0.61338996    -7.245814   0.71875586 0.0019446857 0.0017417576          709 
   30900   0.60308684   -7.2171136   0.72581142 0.0019574202  0.001744889          699 
   31000   0.62310289   -7.1998732   0.71580009 0.0019241938 0.0017474802          718 
   31100    0.6052638    -7.234532   0.72086297 0.0019315728 0.0017498947          731 
   31200   0.60266494   -7.2677133   0.72339326 0.0019321401 0.0017523871          707 
   31300   0.61903312   -7.2053194   0.72322433 0.0019255173 0.0017547463          709 
   31400    0.5887829   -7.2548598   0.71465378 0.0018966395 0.0017566854          719 
   31500   0.57639923   -7.2834139   0.72644287 0.0019218065 0.0017583901          716 
   31600   0.58971117   -7.2536953   0.72310393 0.0019069196 0.0017601614          726 
   31700   0.62879604   -7.3118306   0.73452712 0.0019309335 0.0017620912          741 
   31800    0.5907906   -7.2309139   0.73626448 0.0019294142 0.0017643106          732 
   31900   0.63285999   -7.2964228   0.73289941 0.0019145752 0.0017661796          755 
   32000   0.56368802   -7.2785187   0.73315408 0.0019092554  0.001767801          749 
   32100   0.57393685   -7.2803631   0.75031398 0.0019478556 0.0017698045          773 
   32200   0.61575196   -7.2572201   0.74832763 0.0019366657 0.0017722415          788 
   32300    0.5893756   -7.2983471   0.75495896 0.0019477785 0.0017745955          792 
   32400   0.58589058   -7.3126447   0.76576767  0.001969567 0.0017772118          785 
   32500   0.60939429   -7.2387279   0.76477618 0.0019609645 0.0017800845          781 
   32600   0.60051909   -7.3165602   0.75869646 0.0019394081 0.0017823734          800 
   32700   0.59393023   -7.3072803   0.76787401 0.0019568654 0.0017845443          790 
   32800   0.63038372   -7.2897199   0.77521367 0.0019695469 0.0017871041          785 
   32900   0.61547756   -7.2971576   0.78201147 0.0019807788 0.0017900243          785 
   33000   0.56813805   -7.2738079   0.78655997 0.0019862625 0.0017930691          768 
   33100   0.62453448   -7.3244764   0.78452969 0.0019751502   0.00179583          778 
   33200   0.60113904   -7.2669541   0.77556079 0.0019466887 0.0017982574          778 
   33300   0.62604299   -7.3109274   0.77771588 0.0019462359 0.0018003992          772 
   33400   0.59287802   -7.2850913   0.79233889 0.0019768934 0.0018027738          788 
   33500   0.57739136   -7.2816316   0.77494235 0.0019277173 0.0018048852          806 
   33600   0.58521815    -7.313701    0.7809368 0.0019368472 0.0018062573          793 
   33700   0.62480314   -7.3027102   0.78095745 0.0019311509 0.0018080242          792 
   33800   0.59286758   -7.2971563   0.78049833 0.0019243055 0.0018094186          796 
   33900   0.57286758   -7.3182392   0.79355899  0.001950735 0.0018109563          791 
   34000   0.59078467   -7.3035277   0.80585178 0.0019751269 0.0018131932          819 
   34100   0.57246345   -7.2742356   0.81098796 0.0019818865 0.0018155922          802 
   34200   0.60156647   -7.2912419   0.81028304 0.0019743739 0.0018180381          799 
   34300   0.60012541   -7.3538322   0.80830479 0.0019638114 0.0018203073          788 
   34400   0.58874936   -7.3667825   0.80081561 0.0019399603 0.0018222189          788 
   34500   0.60058712   -7.3063243   0.80986489 0.0019561954 0.0018237966          799 
   34600   0.61989956   -7.3473539   0.82232579 0.0019805534 0.0018260095          789 
   34700   0.60425387   -7.3478715   0.80860397 0.0019418923 0.0018278143          785 
   34800   0.59751249     -7.35747   0.79857138 0.0019122878 0.0018291053          804 
   34900   0.60610577   -7.3343851   0.80617458 0.0019249632 0.0018299371          799 
   35000   0.61354344   -7.3448541   0.81165902 0.0019325215   0.00183107          808 
   35100   0.59035644   -7.3665623   0.81739867 0.0019406426  0.001832463          811 
   35200   0.62248809   -7.3220597   0.82031167 0.0019420257 0.0018339508          800 
   35300   0.61265721   -7.3577274   0.81911221 0.0019336926 0.0018352563          804 
   35400   0.59776974   -7.3508736   0.81600459 0.0019209147 0.0018362939          799 
   35500   0.59970016   -7.3889581   0.80700219 0.0018943713 0.0018370999          816 
   35600   0.62510407   -7.4141654    0.8050374 0.0018844508 0.0018372922          819 
   35700   0.59227419   -7.3388287   0.80303331 0.0018744942 0.0018371823          815 
   35800   0.59227819   -7.3422827   0.82258036 0.0019147587 0.0018376184          819 
   35900   0.59164149   -7.3486162   0.82328896   0.00191107 0.0018383436          833 
   36000   0.58968744   -7.3939617    0.8255157 0.0019109159 0.0018391427          825 
   36100   0.61456574   -7.3262813   0.81815972  0.001888642 0.0018395007          835 
   36200    0.6093685   -7.3659138   0.81511753 0.0018764215 0.0018395507          823 
   36300   0.60158856   -7.3918594   0.79805336 0.0018320784 0.0018388403          833 
   36400   0.59281917   -7.3769483   0.79680206 0.0018241805 0.0018377142          848 
   36500    0.5810383   -7.3096173   0.80613727  0.001840496 0.0018367471          847 
   36600   0.57074823   -7.3631131    0.8071048 0.0018376703 0.0018359811          838 
   36700   0.59817594   -7.4103756   0.80663784 0.0018316027  0.001835089          839 
   36800   0.63239351    -7.375501   0.81402898 0.0018433627 0.0018343752          844 
   36900   0.60901347   -7.3530981   0.81935956 0.0018504055 0.0018338391          837 
   37000   0.60395208   -7.4054518   0.81481594  0.001835171 0.0018331743          850 
   37100   0.62918834   -7.3862055   0.80941714 0.0018180978 0.0018322109          854 
   37200   0.57510174   -7.3521121   0.80554585 0.0018045382 0.0018308699          854 
   37300   0.60790329   -7.4372635   0.81160858 0.0018132452 0.0018296187          852 
   37400   0.61914441   -7.3587615   0.81983042 0.0018267166 0.0018285964          852 
   37500   0.60788447    -7.383364   0.81852148 0.0018189366 0.0018277136          843 
   37600    0.5690086   -7.3706644    0.8189128 0.0018149663 0.0018265765          848 
   37700   0.63307631   -7.3816888   0.82314393 0.0018195047 0.0018255416          841 
   37800   0.61317461   -7.3756824   0.83056968 0.0018310619 0.0018247765          845 
   37900   0.60499421    -7.410579   0.84016947 0.0018473383 0.0018240872          844 
   38000   0.62045083   -7.4115702   0.84438893 0.0018517301 0.0018237922          846 
   38100   0.61414323   -7.3812538   0.83522913 0.0018268353 0.0018232545          845 
   38200   0.61325352   -7.4232934   0.83139816 0.0018136958  0.001822392          850 
   38300   0.57800151   -7.4472914   0.84272423 0.0018336036 0.0018215374          848 
   38400   0.59954447   -7.3910417   0.82795551 0.0017967784 0.0018205433          840 
   38500   0.58917782   -7.4170586   0.84010988 0.0018184196 0.0018193784          851 
   38600   0.59724025   -7.3891575    0.8430073 0.0018199639 0.0018184772          856 
   38700   0.59206975   -7.4463949    0.8456705 0.0018209959 0.0018176009          856 
   38800   0.57465618    -7.403972   0.83816885 0.0018001908 0.0018165148          848 
   38900   0.58748904   -7.3888547   0.83764859 0.0017944485 0.0018151503          854 
   39000   0.58228106   -7.4007859   0.84880828 0.0018136929  0.001814027          855 
   39100   0.59466633   -7.3730875   0.84057439 0.0017915055 0.0018129079          859 
   39200   0.59737112   -7.4501397   0.84466552 0.0017956325 0.0018116741          857 
   39300   0.62743582   -7.4131445     0.840938 0.0017831594  0.001810289          845 
   39400   0.59729122   -7.4237703   0.84775196 0.0017930456  0.001809056          853 
   39500   0.59189099   -7.4319302   0.86867844 0.0018326549 0.0018081719          854 
   39600   0.56526355   -7.4005775   0.86716811 0.0018248487 0.0018077465          849 
   39700   0.60184584   -7.4191748   0.87422614 0.0018350674  0.001807198          858 
   39800   0.60417863   -7.4104788   0.86870929 0.0018189055 0.0018067811          854 
   39900   0.60992042   -7.4579427   0.86220822  0.001800769 0.0018058708          855 
   40000   0.61655469   -7.4244379   0.85278335  0.001776632 0.0018045603          850 
   40100   0.63838595    -7.366317   0.85736517 0.0017817231 0.0018032683          858 
   40200   0.62699385   -7.4728425   0.86063837 0.0017840762 0.0018019912          862 
   40300   0.58467908    -7.395494   0.86764776 0.0017941434 0.0018008141          853 
   40400   0.61866916   -7.4126387   0.87016028  0.001794885 0.0017997462          855 
   40500   0.57917172   -7.4444373    0.8812373 0.0018132455 0.0017990132          849 
   40600   0.60105243   -7.4635156    0.8818307 0.0018099973 0.0017982839          846 
   40700   0.61920146   -7.4325345   0.88891219 0.0018200495 0.0017975987          853 
   40800   0.57650362   -7.4060526   0.89107467 0.0018200054 0.0017971922          853 
   40900   0.58051344   -7.4442376   0.88839175 0.0018100891 0.0017965827          851 
   41000   0.58202028   -7.4851259   0.87769565 0.0017839342 0.0017955215          850 
   41100   0.60889361   -7.4337444   0.88563315 0.0017956876  0.001794573          855 
   41200   0.58795475   -7.4652504   0.87937826 0.0017786777  0.001793413          853 
   41300     0.584237   -7.4285182   0.89267534 0.0018012012 0.0017924995          859 
   41400   0.60441798   -7.4556101   0.89747922 0.0018065201 0.0017918054          857 
   41500   0.60157454   -7.4628205   0.90339355 0.0018140432 0.0017911649          856 
   41600   0.57133961   -7.4774021   0.89944691 0.0018017766 0.0017906056          856 
   41700   0.59031364   -7.4529699   0.90307466 0.0018047055 0.0017898709          857 
   41800    0.6065407   -7.4370927   0.89975325 0.0017937664 0.0017891076          858 
   41900   0.57479827   -7.4783409   0.90078851 0.0017915444 0.0017882122          854 
   42000   0.61256878   -7.4926651   0.89527288  0.001776335 0.0017872068          853 
   42100   0.62497052   -7.4253537   0.88651856 0.0017547873 0.0017858072          850 
   42200   0.62838329   -7.4659388   0.89230773  0.001762061 0.0017844945          857 
   42300   0.58562973   -7.4517337    0.8966104 0.0017663719 0.0017832089          849 
   42400   0.60129181   -7.4411988   0.91104825 0.0017905822 0.0017822528          839 
   42500   0.60965569   -7.4525944   0.89887556 0.0017625011 0.0017810588          843 
   42600   0.58677367   -7.4713544   0.90206502 0.0017646029 0.0017798283          845 
   42700   0.57326536   -7.4808293   0.90473312 0.0017656774 0.0017785925          855 
   42800   0.62135844   -7.4640224   0.90632837  0.001764658  0.001777414          847 
   42900   0.59979336   -7.4839391   0.90296028 0.0017540021 0.0017761257          850 
   43000   0.60568598   -7.4910518   0.90168184 0.0017474454 0.0017747405          846 
   43100   0.60776051   -7.4087966    0.8952527 0.0017309603 0.0017730796          849 
   43200   0.58310219   -7.4518609   0.89357065 0.0017237088 0.0017713347          850 
   43300   0.62679552    -7.482165   0.89626596 0.0017249152 0.0017695724          845 
   43400   0.61909941   -7.4974683    0.8932517  0.001715153 0.0017677998          849 
   43500   0.62039115   -7.4894369   0.89586736  0.001716221 0.0017659396          842 
   43600   0.62365464   -7.4297724   0.90063679 0.0017214006 0.0017641802          848 
   43700   0.61413406   -7.4926565   0.91056295   0.00173639 0.0017626862          851 
   43800   0.59750283   -7.4590976   0.89931341 0.0017110224 0.0017609898          850 
   43900   0.60822566   -7.4620606   0.91167972 0.0017305993 0.0017592614          851 
   44000   0.64233535   -7.4683893   0.90502252 0.0017140578 0.0017577032          856 
   44100    0.5887837   -7.4612793   0.88827337 0.0016785211 0.0017556519          854 
   44200   0.59878339   -7.4543802     0.894685 0.0016868118 0.0017533893          852 
   44300   0.60384966   -7.4380844   0.90730181 0.0017067378 0.0017514484          850 
   44400   0.57616817   -7.4579274    0.9238888 0.0017340255 0.0017498729          852 
   44500   0.58026603   -7.4527894   0.92191509 0.0017264327 0.0017485403          849 
   44600   0.61805147   -7.4160462   0.91829654 0.0017158007 0.0017470291          858 
   44700   0.58563089    -7.461307    0.9111197 0.0016985826 0.0017453004          853 
   44800   0.59421953   -7.4609573   0.90986535 0.0016924579 0.0017432957          852 
   44900   0.61530892   -7.4484094   0.91483648 0.0016979148 0.0017414881          850 
   45000   0.56651921   -7.4346856   0.91374658 0.0016921233 0.0017396382          853 
   45100   0.60576742   -7.4827012   0.91126415 0.0016837844 0.0017377029          850 
   45200   0.63977598    -7.456522   0.92440395 0.0017042845 0.0017359392          856 
   45300   0.62563006   -7.4678626   0.92832997 0.0017077446  0.001734394          852 
   45400    0.6298059    -7.517871   0.93308385  0.001712709 0.0017328931          854 
   45500   0.59444938   -7.5015819   0.93062992 0.0017044504 0.0017314344          849 
   45600   0.61129728   -7.4899262   0.93160645 0.0017024971 0.0017298233          846 
   45700     0.616482   -7.5082478   0.93652636 0.0017077432 0.0017283627          850 
   45800   0.58213261   -7.5178974   0.93314485 0.0016978618 0.0017267798          852 
   45900    0.6057938   -7.4701409   0.93870826 0.0017042633 0.0017252673          855 
   46000   0.58827338   -7.4984708   0.93400309 0.0016920346 0.0017236911          847 
   46100   0.57906066   -7.5490269   0.92611991 0.0016741141 0.0017218499          852 
   46200   0.57938329   -7.5204758   0.93347776 0.0016837622 0.0017199781          851 
   46300   0.61550813   -7.5061637   0.92952128 0.0016730044 0.0017182062          846 
   46400   0.60697509   -7.4863647   0.93874163 0.0016859584 0.0017164373          841 
   46500   0.62306907   -7.4689175   0.95159784 0.0017053725  0.001714935          851 
   46600   0.61656599   -7.5104568   0.94326341 0.0016868086 0.0017135619          855 
   46700   0.59689918   -7.5335494   0.95192338 0.0016986498  0.001712033          857 
   46800   0.59648967    -7.485687    0.9582756 0.0017063312 0.0017107816          857 
   46900   0.60042064   -7.5121446   0.96440701 0.0017135874   0.00170963          858 
   47000    0.5978083   -7.5173833   0.95628329 0.0016955377 0.0017083018          861 
   47100   0.60637148   -7.5067179   0.94159333 0.0016659471 0.0017067531          860 
   47200   0.60347584   -7.5795395   0.93494376 0.0016506775 0.0017048766          859 
   47300    0.6003458   -7.5055316   0.94621313 0.0016670421 0.0017029414          859 
   47400   0.63780381    -7.523506   0.93797653 0.0016490445 0.0017011049          858 
   47500   0.60435461   -7.5186581   0.94268061 0.0016538256 0.0016991817          853 
   47600   0.61124718   -7.5388114   0.95641475 0.0016743956 0.0016974344          856 
   47700   0.62045179   -7.4875735   0.96372397 0.0016836547 0.0016960198          856 
   47800   0.59257677   -7.4702141   0.96052091 0.0016745483 0.0016945905          860 
   47900   0.57877742    -7.514966   0.95264314 0.0016573471 0.0016928264          859 
   48000   0.57368334   -7.4987241   0.95440045 0.0016569452 0.0016910834          858 
   48100   0.63241453   -7.4817963    0.9442166 0.0016358569 0.0016891525          857 
   48200     0.607633   -7.5529385   0.93658528 0.0016192691 0.0016869987          859 
   48300   0.59660554   -7.5042648   0.94071421 0.0016230404 0.0016847612          859 
   48400   0.59326548   -7.5103549   0.95371782 0.0016420761 0.0016827592          862 
   48500   0.59434023   -7.5784021   0.95767769 0.0016454943 0.0016809998          858 
   48600   0.59017864   -7.4814409   0.95827961 0.0016431406 0.0016792179          858 
   48700   0.58799039   -7.5271235   0.95491565 0.0016340103 0.0016773237          858 
   48800   0.61235822   -7.4932438   0.95916852 0.0016379244 0.0016754492          858 
   48900   0.60084246   -7.5177727   0.95634086 0.0016297561 0.0016735702          849 
   49000    0.6047177   -7.5617484   0.96369483 0.0016389368 0.0016717824          853 
   49100   0.61347587   -7.4866454   0.95480272  0.001620507  0.001669838          855 
   49200   0.59877457   -7.4912453   0.95653405 0.0016201457 0.0016678185          855 
   49300   0.58665673   -7.5720792   0.95053058 0.0016067116 0.0016657121          860 
   49400   0.60672302   -7.4719421   0.94822135 0.0015995637 0.0016634897          859 
   49500   0.59233276   -7.5221155   0.95412485 0.0016062708 0.0016613296          859 
   49600   0.58190241   -7.5594367   0.96019709 0.0016132343 0.0016592885          857 
   49700   0.58934175   -7.5057362   0.96493993 0.0016179409 0.0016573808          851 
   49800    0.6113508   -7.5160553   0.95717439 0.0016016974 0.0016554458          851 
   49900   0.57760455   -7.5322671   0.95548853 0.0015956722 0.0016532968          849 
   50000   0.61322539   -7.5323722   0.96430884 0.0016071814 0.0016512061          857 
   50100   0.60626576   -7.4994844   0.96164986 0.0015995506  0.001649158          856 
   50200    0.5930331   -7.5353287   0.97042998 0.0016109395 0.0016472823          856 
   50300   0.60698971   -7.5064624   0.96087505  0.001591907  0.001645265          858 
   50400     0.612024   -7.5019336   0.96065605 0.0015883863 0.0016431727          857 
   50500   0.59330261   -7.5669465   0.95328622 0.0015730795  0.001640957          857 
   50600   0.59242651   -7.5170496   0.95514507  0.001573032 0.0016386016          854 
   50700   0.60891068   -7.4825883   0.95651042 0.0015721736 0.0016363772          858 
   50800   0.61249682   -7.5784282   0.96197621  0.001578045 0.0016341809          862 
   50900   0.57323391    -7.523017   0.96464141 0.0015793081 0.0016320485          860 
   51000   0.61202187   -7.5503091   0.96002939 0.0015686755  0.001629803          862 
   51100   0.58386732   -7.5216957   0.96715622  0.001577228 0.0016276233          861 
   51200   0.57573878   -7.5935072   0.97362323 0.0015846732 0.0016256537          862 
   51300   0.59385829   -7.5223464   0.97431033 0.0015827003 0.0016236615          861 
   51400   0.60384556   -7.5255903   0.97961666 0.0015882241 0.0016217956          860 
   51500   0.62306669    -7.494153    0.9787452 0.0015837301 0.0016198567          862 
   51600   0.58577584   -7.5198299    0.9714482 0.0015688763 0.0016178983          861 
   51700   0.58070343   -7.5495923   0.95060056 0.0015322382 0.0016155219          854 
   51800   0.59427186   -7.5009996   0.95038535 0.0015289339 0.0016129562          858 
   51900   0.60169883   -7.5204431   0.96373066 0.0015474159 0.0016105268          856 
   52000    0.6001088   -7.5672767   0.96896605 0.0015528302 0.0016082586          861 
   52100   0.57067172   -7.5183375   0.97678989 0.0015623639 0.0016061133          861 
   52200   0.61259812   -7.5210925   0.98920861 0.0015791964 0.0016042011          859 
   52300   0.59149562   -7.5174872    1.0019124 0.0015964188 0.0016025603          854 
   52400   0.58782599    -7.518579   0.99788148 0.0015869616 0.0016010264          856 
   52500   0.59895935   -7.5831502   0.97755711 0.0015516779 0.0015991351          860 
   52600    0.6064268   -7.5532311   0.97811088 0.0015496053 0.0015969907          856 
   52700    0.6023918   -7.5238211   0.97468325 0.0015412448 0.0015948238          861 
   52800   0.62319625   -7.4776565    0.9709058 0.0015323639 0.0015926141          860 
   52900   0.60712479   -7.5372768   0.97925475 0.0015426193  0.001590372          862 
   53000   0.57706802   -7.5278024   0.98029224   0.00154134 0.0015882793          858 
   53100   0.61234611   -7.5217775   0.96410129 0.0015130278 0.0015859978          859 
   53200   0.63009277   -7.5045437   0.95083288 0.0014893999 0.0015834128          857 
   53300   0.58618685   -7.5300333   0.96023979  0.001501313 0.0015807548          860 
   53400   0.57531509    -7.516114   0.96280311 0.0015025017 0.0015782067          861 
   53500   0.57025717   -7.5270075   0.96482135  0.001502837 0.0015756755          856 
   53600   0.57952265   -7.5270759   0.96975707 0.0015077069 0.0015733052          859 
   53700   0.59651345   -7.5095309   0.97827813 0.0015181225  0.001570972          858 
   53800   0.58368041   -7.5096447   0.97437456 0.0015092543 0.0015686837          861 
   53900   0.58960715   -7.5269307   0.96875934 0.0014977726  0.001566351          861 
   54000   0.59648841   -7.5321738   0.97346146 0.0015022553 0.0015639672          859 
   54100   0.63298666   -7.5249993   0.97077526 0.0014953408 0.0015615812          861 
   54200    0.6235304    -7.593744   0.97270133 0.0014955432 0.0015591407          862 
   54300   0.59043701   -7.5801342   0.97684897 0.0014991543  0.001556767          863 
   54400   0.61571468   -7.5090339   0.97886822 0.0014994917  0.001554485          860 
   54500   0.58684374   -7.5296635   0.97775717 0.0014950415 0.0015522155          862 
   54600   0.57486884   -7.5754789   0.96646193  0.001475064 0.0015497752          858 
   54700   0.60450529   -7.5538185   0.95009564 0.0014474339 0.0015470291          863 
   54800   0.60763628   -7.5129999   0.95120168 0.0014464746 0.0015441456          860 
   54900    0.6044842   -7.5306594   0.96839321  0.001469935  0.001541475          859 
   55000   0.58409373   -7.5391141   0.96781088 0.0014663801 0.0015389354          859 
   55100   0.62480997   -7.5221545   0.97905234 0.0014807204  0.001536597          860 
   55200   0.61521784   -7.5136215   0.98150715 0.0014817439 0.0015343123          860 
   55300   0.60787668     -7.59267   0.98409549 0.0014829649 0.0015320833          859 
   55400   0.60225708   -7.5211912   0.97289191 0.0014634355 0.0015297683          861 
   55500   0.60257562   -7.5474462   0.97160269 0.0014588629 0.0015271821          862 
   55600   0.59696593   -7.5325794   0.97101966 0.0014553652 0.0015247117          862 
   55700   0.60645581   -7.5309901   0.97016404 0.0014514722 0.0015221709          862 
   55800   0.55557246   -7.5124007   0.98628236 0.0014729426  0.001519779          859 
   55900    0.5743018    -7.496139   0.97597324 0.0014549392 0.0015174014          862 
   56000   0.60230797   -7.5280627    0.9865035 0.0014680111 0.0015150795          860 
   56100   0.62821248   -7.5658338   0.99372958 0.0014761283 0.0015128706          857 
   56200   0.59268446   -7.5278407   0.98861503 0.0014659179 0.0015106956          860 
   56300   0.60310151   -7.5558989   0.98465452 0.0014574519 0.0015084439          859 
   56400   0.59423863   -7.5093102    0.9760417  0.001442142 0.0015060612          859 
   56500   0.58934599   -7.5366698   0.97819734 0.0014427689  0.001503588          860 
   56600    0.5941496    -7.549457   0.97866556 0.0014409092  0.001501156          858 
   56700   0.57884189   -7.5108285   0.99056771 0.0014558608 0.0014988515          857 
   56800   0.63605118   -7.5084111   0.98220144 0.0014410232 0.0014965219          852 
   56900   0.62867733   -7.5317552   0.98288365 0.0014394898 0.0014941829          861 
   57000   0.60744381   -7.5520126   0.98211021 0.0014358336 0.0014918473          855 
   57100   0.58767461    -7.539072   0.98095747 0.0014316367 0.0014894541          854 
   57200   0.60967263   -7.5548846   0.98455173 0.0014343702 0.0014870843          857 
   57300   0.60696292   -7.5341568   0.98942668 0.0014389568 0.0014847911          857 
   57400    0.6056318   -7.5645033   0.98402408 0.0014286064 0.0014824336          859 
   57500   0.62366149   -7.5336383     0.984033 0.0014261348 0.0014800665          860 
   57600   0.62040462    -7.512633   0.98220506 0.0014210142 0.0014776355          856 
   57700   0.60389818   -7.5354993   0.97312655 0.0014054398 0.0014751568          858 
   57800   0.58069758   -7.5578249    0.9782688 0.0014104221 0.0014725963          858 
   57900    0.6001622   -7.5803289   0.97938667 0.0014095951 0.0014701364          858 
   58000   0.58854248   -7.4910013   0.98553757 0.0014160022 0.0014677173          855 
   58100   0.58828968   -7.5149238   0.97792575 0.0014026474 0.0014652808          860 
   58200    0.5826524   -7.5361199     0.969751 0.0013885323 0.0014627368          856 
   58300   0.58647289   -7.5452295   0.97349541 0.0013915029  0.001460057          856 
   58400   0.63424538   -7.5227374   0.98039978 0.0013989723 0.0014575641          858 
   58500   0.59132716   -7.5492246   0.99351046 0.0014152571 0.0014551558          859 
   58600   0.59858002   -7.5554752   0.98836752 0.0014055283 0.0014529052          861 
   58700    0.5980946   -7.5163658   0.97110036 0.0013786206 0.0014503977          855 
   58800   0.62088138   -7.5163512    0.9601018 0.0013606885 0.0014477066          862 
   58900   0.59283011    -7.530967   0.97270232 0.0013762059 0.0014449629          860 
   59000   0.58473239   -7.5519831   0.96918303 0.0013689026 0.0014423572          862 
   59100   0.59743618    -7.520747   0.97748742 0.0013782958 0.0014397598          864 
   59200   0.60945016   -7.5195971   0.98999222 0.0013935701 0.0014373429          862 
   59300   0.61015749   -7.5375673   0.98634448  0.001386094 0.0014350127          862 
   59400   0.58745811   -7.5471927   0.98129928 0.0013766825 0.0014326087          863 
   59500   0.56747569   -7.5502388   0.97291614 0.0013626276 0.0014300146          860 
   59600   0.58555823   -7.4769288   0.96498769 0.0013492557 0.0014273893          857 
   59700   0.64609124   -7.5205481   0.96378487 0.0013453167 0.0014246391          861 
   59800   0.63270842   -7.5357066   0.95634475 0.0013326989 0.0014218171          858 
   59900   0.57290934   -7.5028304   0.96019234 0.0013358268 0.0014189813          860 
   60000    0.5917948   -7.5283529   0.96028501 0.0013337292 0.0014161802          861 
   60100   0.60900136   -7.4977009   0.96130664 0.0013329266  0.001413351          855 
   60200   0.58891268   -7.5506523   0.96345671 0.0013336887 0.0014105991          861 
   60300   0.59043136   -7.5535614   0.96532872  0.001334064  0.001407858          858 
   60400   0.60335676   -7.5088263   0.97104834 0.0013397466 0.0014052122          858 
   60500   0.61015858   -7.5175934   0.97021834 0.0013363889 0.0014025966          858 
   60600   0.58033628   -7.5521778   0.96161632 0.0013223547 0.0013998631          862 
   60700    0.6145045    -7.532583   0.95720803 0.0013141241 0.0013970854          863 
   60800   0.63227844   -7.5198347   0.96491977 0.0013225326 0.0013942869          861 
   60900   0.59814747   -7.5216319    0.9705249 0.0013280308 0.0013916606          859 
   61000   0.57249293   -7.5406355   0.96384738 0.0013167314 0.0013890066          859 
   61100   0.59383886   -7.5253792   0.97260429 0.0013265198 0.0013863488          857 
   61200   0.62438649   -7.5626341   0.97922914  0.001333373 0.0013837999          861 
   61300   0.59738685   -7.5363866   0.98171727 0.0013345803  0.001381423          854 
   61400   0.64195597   -7.5269556   0.96936375 0.0013156403 0.0013788349          857 
   61500   0.61083919   -7.5368574   0.96451842 0.0013069355 0.0013761885          860 
   61600   0.59206063   -7.5328416   0.96136107 0.0013005426 0.0013734615          863 
   61700   0.59385614   -7.5286158   0.95385181 0.0012882925 0.0013706453          860 
   61800   0.59337679   -7.4917581   0.95823266 0.0012921152 0.0013678061          860 
   61900   0.61232797   -7.5301701   0.97693664 0.0013152082 0.0013651755          860 
   62000   0.59266425   -7.5333087   0.99005136 0.0013307142 0.0013628091          860 
   62100   0.61886867   -7.5630074   0.98065365 0.0013159603 0.0013604211          858 
   62200    0.5837706   -7.5138352   0.98988147 0.0013262077 0.0013580312          854 
   62300   0.59512632    -7.511615   0.98441745 0.0013167703 0.0013556717          856 
   62400    0.5828103   -7.5399963   0.98501829 0.0013154624 0.0013533023          864 
   62500   0.58551146   -7.5619967   0.98268293 0.0013102439 0.0013509085          858 
   62600   0.59423442   -7.4922825   0.97958695 0.0013040295 0.0013485015          859 
   62700   0.62044607   -7.5542009   0.98678636 0.0013115183 0.0013461106          858 
   62800   0.58540704   -7.5712774    0.9880188 0.0013110653 0.0013437715          851 
   62900   0.58813701   -7.5383615   0.99155541 0.0013136664 0.0013414414          853 
   63000   0.57381691   -7.4956767    1.0044302 0.0013286114 0.0013392683          855 
   63100   0.61278861   -7.5286464    1.0116799 0.0013360801  0.001337235          857 
   63200    0.5960681   -7.5172547    1.0048003 0.0013248948 0.0013351849          856 
   63300   0.58618288   -7.5572553   0.99465264 0.0013094426 0.0013330296          856 
   63400   0.57667589   -7.5192878    0.9884626 0.0012992411 0.0013307423          859 
   63500   0.59939209   -7.5256234   0.99639136 0.0013076002 0.0013284702          857 
   63600   0.59572238   -7.5371152   0.99994738 0.0013102036 0.0013262652          858 
   63700   0.60605168    -7.571923    1.0097075 0.0013209151 0.0013242061          856 
   63800   0.61398656    -7.529907    1.0100774 0.0013193279 0.0013221577          855 
   63900   0.59584189   -7.5502195    1.0070365 0.0013132974 0.0013201395          854 
   64000   0.60837252   -7.5618242    1.0067787 0.0013109097 0.0013180387          850 
   64100     0.617794   -7.5257451    1.0183479 0.0013239052 0.0013160833          854 
   64200    0.6241111   -7.5571913    1.0178192 0.0013211568  0.001314173          854 
   64300   0.60360536   -7.5337271    1.0292184 0.0013338755 0.0013123415          858 
   64400   0.61531593   -7.5242711    1.0427935 0.0013493704 0.0013106883          854 
   64500   0.61201562    -7.510442    1.0421464 0.0013464423 0.0013090767          855 
   64600   0.60631817   -7.5530098    1.0414061 0.0013434032 0.0013074902          855 
   64700   0.59385857   -7.5173692    1.0300928 0.0013267553 0.0013057794          855 
   64800   0.58659874   -7.5206208    1.0212851 0.0013133811 0.0013039299          853 
   64900   0.55050763   -7.5046191    1.0197891 0.0013094364 0.0013020057          859 
   65000   0.60803411   -7.5396318     1.019403 0.0013069269 0.0013000372          860 
   65100   0.59564847   -7.5512301    1.0286673 0.0013167785 0.0012982092          860 
   65200   0.58381324   -7.5352406    1.0382747 0.0013270382 0.0012964301          862 
   65300   0.59489548   -7.5046248     1.045047 0.0013336486 0.0012947955          856 
   65400   0.63475196   -7.5143176    1.0451702 0.0013317662  0.001293237          858 
   65500   0.59722998    -7.559865    1.0502153 0.0013361518 0.0012916699          859 
   65600   0.58458266   -7.5501479    1.0398306  0.001320923 0.0012900402          857 
   65700   0.62727716   -7.5450531    1.0421922 0.0013219079 0.0012883863          853 
   65800   0.58612263   -7.5082497    1.0435185 0.0013215787 0.0012867571          859 
   65900   0.60831923   -7.5822138    1.0368129 0.0013110937 0.0012850894          862 
   66000   0.58405746   -7.5456936    1.0295327  0.001299915 0.0012832441          858 
   66100   0.59432159   -7.5200514    1.0338259 0.0013033609 0.0012814476          859 
   66200   0.62918653   -7.5486609    1.0321758 0.0012993149 0.0012797182          857 
   66300     0.609373   -7.5440171    1.0419053 0.0013095843 0.0012780215          857 
   66400   0.61967972    -7.527427    1.0433722 0.0013094531  0.001276378          858 
   66500   0.62878854   -7.5026627    1.0422685 0.0013061009 0.0012747256          856 
   66600   0.61479763   -7.5251198    1.0386575 0.0012996214 0.0012729889          855 
   66700   0.60571967   -7.5507273    1.0365022 0.0012949803 0.0012712396          856 
   66800   0.57972453   -7.5482554    1.0457524 0.0013045814 0.0012695396          861 
   66900   0.59288901   -7.5494553    1.0450423 0.0013017467 0.0012678752          859 
   67000   0.57046416   -7.5327211    1.0619334 0.0013208126 0.0012663565          857 
   67100   0.60543457   -7.5710937    1.0672282   0.00132542 0.0012649279          858 
   67200   0.58915528   -7.4970439    1.0608886  0.001315586 0.0012635115          856 
   67300   0.58994717   -7.5354232    1.0526812 0.0013034685  0.001261976          863 
   67400   0.59079835    -7.552961    1.0375466 0.0012828222 0.0012602838          856 
   67500   0.60137575   -7.5165538     1.037698 0.0012811087 0.0012584936          862 
   67600    0.6001172   -7.5288261    1.0378644 0.0012794186 0.0012567284          862 
   67700   0.57490279   -7.5744036    1.0510434 0.0012937511 0.0012550162          859 
   67800   0.57061164   -7.5214995    1.0509939 0.0012917821 0.0012534194          859 
   67900    0.6084149   -7.5368278    1.0449153 0.0012824193 0.0012517455          854 
   68000    0.5722119   -7.5299548    1.0320667 0.0012647876 0.0012499731          858 
   68100   0.58713155   -7.5685793    1.0360936 0.0012678581 0.0012481598          859 
   68200   0.61586282   -7.5439573    1.0298174 0.0012583301 0.0012463382          857 
   68300   0.58808424   -7.5228906    1.0197969 0.0012442617 0.0012443833          859 
   68400   0.57927854   -7.5696222     1.019107 0.0012416021 0.0012423628          856 
   68500   0.60564045   -7.5219398    1.0136248 0.0012331202 0.0012402947          858 
   68600   0.61911207   -7.5351504    1.0279575 0.0012487336 0.0012383214          856 
   68700   0.60415453   -7.5717071    1.0314566 0.0012511603 0.0012364798          860 
   68800   0.60687418   -7.5933966    1.0352615 0.0012539504 0.0012346039          863 
   68900   0.60854595   -7.5364415    1.0418863 0.0012601431 0.0012328333          860 
   69000   0.58172688   -7.5602444     1.063003 0.0012838201 0.0012312454          862 
   69100   0.59833264   -7.5569662     1.048635 0.0012646345 0.0012296503          860 
   69200   0.61610012   -7.5385204    1.0389008 0.0012510848 0.0012279185          857 
   69300   0.60139786    -7.565225    1.0235601 0.0012308322 0.0012260616          860 
   69400   0.57851165   -7.5636123    1.0120377 0.0012152229 0.0012240289          858 
   69500   0.61111182   -7.5890198    1.0183633 0.0012210591 0.0012219453          856 
   69600   0.61621593   -7.5076641    1.0064771 0.0012050731  0.001219858          855 
   69700   0.60628438    -7.529984    1.0159422 0.0012146607 0.0012177403          861 
   69800   0.57630247   -7.5716644    1.0304112 0.0012301949 0.0012158054          860 
   69900   0.61649025   -7.5453154    1.0353362 0.0012343064 0.0012139682          860 
   70000   0.59441343    -7.530523    1.0425557 0.0012411377  0.001212188          856 
   70100   0.60643533   -7.5413056    1.0366321 0.0012323254 0.0012104341          856 
   70200   0.57690473   -7.5463167    1.0266484 0.0012187184 0.0012085623          854 
   70300   0.58974219   -7.5422532    1.0375955 0.0012299614 0.0012067043          857 
   70400   0.59082235   -7.5093163     1.043212 0.0012348627 0.0012049752          856 
   70500   0.56258739   -7.5328126    1.0440189 0.0012340649 0.0012032242          859 
   70600   0.57166766   -7.5773582    1.0426989 0.0012307588 0.0012015037          858 
   70700   0.57197439   -7.5181585    1.0469564 0.0012340363 0.0011997787          858 
   70800   0.59522838   -7.5424723    1.0458269 0.0012309639 0.0011980827          854 
   70900   0.61144758   -7.5174124    1.0418816 0.0012245905 0.0011963648          858 
   71000   0.60160522   -7.5361492    1.0237958 0.0012016382 0.0011945069          858 
   71100   0.58389747   -7.5726646    1.0282531 0.0012051724 0.0011925907          853 
   71200   0.64815472   -7.5837906    1.0134941 0.0011862056 0.0011905894          852 
   71300   0.60743104   -7.5460591    1.0303471 0.0012042392 0.0011886506          854 
   71400   0.57476723   -7.5285009    1.0538178 0.0012299461 0.0011868828          855 
   71500   0.60620696   -7.5717487    1.0483427 0.0012218447 0.0011852705          856 
   71600   0.61816026   -7.5467788    1.0562559 0.0012293481  0.001183638          850 
   71700   0.59252442   -7.5501642     1.054053 0.0012250732 0.0011820415          854 
   71800   0.60958635   -7.5328527    1.0418045 0.0012091509 0.0011803595          858 
   71900   0.60209165   -7.5300775    1.0464901    0.0012129 0.0011786103          851 
   72000    0.5939426   -7.5475024    1.0480449 0.0012130149 0.0011769251          856 
   72100   0.58000311   -7.5362355     1.053464  0.001217596 0.0011752553          855 
   72200   0.61902759   -7.5338814    1.0566508 0.0012195877 0.0011736607          859 
   72300   0.59520599   -7.5392334    1.0462487 0.0012059114  0.001172017          857 
   72400   0.58322228   -7.5373771    1.0463863 0.0012044041 0.0011703096          855 
   72500   0.58403434   -7.5333723    1.0529134 0.0012102453 0.0011686196          859 
   72600   0.60442033   -7.5317693     1.047447 0.0012023037 0.0011669859          858 
   72700   0.60178531   -7.5679233    1.0339906 0.0011852253 0.0011651932          855 
   72800   0.62062028   -7.5661563    1.0399625 0.0011904333 0.0011634145          856 
   72900   0.60966156   -7.5467813    1.0338957 0.0011818652 0.0011616084          855 
   73000   0.58242869   -7.5495032    1.0336552 0.0011799716 0.0011597584          860 
   73100   0.62655514   -7.5727804    1.0371595 0.0011823524 0.0011579558          860 
   73200   0.62401161   -7.5208258    1.0393587 0.0011832408 0.0011561552          856 
   73300   0.61094286   -7.5670103    1.0344483  0.001176044 0.0011544132          858 
   73400   0.58293619   -7.5585334    1.0385421 0.0011790896  0.001152581          859 
   73500   0.60096573   -7.5556501    1.0515654  0.001192251 0.0011508799          860 
   73600   0.59168961   -7.5186875    1.0566669 0.0011964072 0.0011492686          856 
   73700   0.61991288   -7.5185167    1.0562683 0.0011943332 0.0011476627          858 
   73800   0.61867902   -7.5438345      1.04774 0.0011830849 0.0011460467          856 
   73900   0.60907608   -7.5686381     1.044228 0.0011775236 0.0011443326          856 
   74000   0.60519347   -7.4959911    1.0488721 0.0011811623 0.0011426434          857 
   74100   0.58826751   -7.5009484    1.0486613 0.0011793312 0.0011409998          852 
   74200   0.59038704   -7.5505561    1.0519969  0.001181488 0.0011393199          858 
   74300   0.56096371    -7.547435    1.0548651 0.0011831147 0.0011377137          858 
   74400    0.5837914   -7.5320428    1.0522828 0.0011786322 0.0011361362          855 
   74500   0.58914067   -7.5336447    1.0361973 0.0011590574 0.0011344136          857 
   74600   0.57421327   -7.5529597    1.0304973 0.0011511364 0.0011325528          858 
   74700   0.59678639    -7.540566    1.0365763  0.001156377 0.0011307263          857 
   74800   0.60029634   -7.5312053     1.041779 0.0011606272 0.0011289729          858 
   74900   0.59732034    -7.565282    1.0469678 0.0011648506  0.001127283          856 
   75000    0.5940155   -7.5611988    1.0467332 0.0011630369 0.0011255743          859 
   75100   0.58478341   -7.5851243    1.0487637 0.0011637414 0.0011239204          859 
   75200   0.58768021   -7.5539705    1.0419216 0.0011546117 0.0011221944          859 
   75300   0.62312192   -7.5338947    1.0419106 0.0011530662 0.0011204519          858 
   75400    0.5944447   -7.5816483    1.0378103 0.0011470051 0.0011187272          852 
   75500   0.59253717   -7.5387165    1.0425701 0.0011507396 0.0011169987          854 
   75600   0.60771071   -7.5265892    1.0303693 0.0011357686 0.0011152009          858 
   75700   0.58599888   -7.5312567    1.0506764 0.0011566231 0.0011134856          854 
   75800   0.60167209   -7.5113458      1.03742 0.0011405233 0.0011117802          857 
   75900   0.61427941   -7.5337093    1.0526998 0.0011557969 0.0011100807          857 
   76000   0.59532463   -7.5706086    1.0649739 0.0011677345 0.0011085517          853 
   76100   0.60750885   -7.5437038    1.0570978 0.0011575753 0.0011070177          853 
   76200   0.61648428   -7.5471887    1.0542341 0.0011529244 0.0011054265          857 
   76300   0.60155286   -7.5621814    1.0423106 0.0011383908 0.0011037682          853 
   76400   0.61662923   -7.5717846    1.0437442 0.0011384644 0.0011020749          855 
   76500   0.59176579   -7.5636531     1.034067 0.0011264346 0.0011003326          857 
   76600   0.60512359   -7.5414521    1.0256457 0.0011158025  0.001098482          860 
   76700   0.60176844   -7.5394346    1.0329451 0.0011222784 0.0010966726          855 
   76800   0.59850044   -7.5299917    1.0371046 0.0011253305 0.0010949004          857 
   76900   0.58578802   -7.5640042    1.0322844 0.0011186437 0.0010931222          857 
   77000   0.59781207   -7.5053826    1.0433899 0.0011292099 0.0010914034          855 
   77100   0.60399971   -7.5350586    1.0432125 0.0011275535 0.0010897205          857 
   77200   0.60196155   -7.5480733    1.0526214 0.0011362494 0.0010880665          856 
   77300   0.62711792   -7.5339994    1.0556602 0.0011380554 0.0010865133          861 
   77400    0.6085113   -7.5334799    1.0539335  0.001134726 0.0010849331          858 
   77500   0.58336972   -7.5677981    1.0352604 0.0011131833 0.0010832517          858 
   77600    0.5866664   -7.4951797    1.0305109 0.0011066483 0.0010814767          857 
   77700   0.61003259    -7.569981    1.0262298 0.0011006326 0.0010796757          857 
   77800    0.5937273   -7.5607217    1.0232087 0.0010959819 0.0010778202          857 
   77900   0.59895337   -7.5148494    1.0276579 0.0010993345 0.0010759947          856 
   78000   0.61910507   -7.5704535    1.0376896 0.0011086427 0.0010742283          861 
[...]
   83200    0.5660719   -7.5317823    1.0341961 0.0010358534 0.00098963385          859 
   83300   0.60398887    -7.561951    1.0280951 0.0010285065 0.00098796288          860 
   83400   0.61681658   -7.5276729    1.0191773 0.0010183626 0.00098624721          857 
   83500   0.58276972   -7.5426992    1.0256654 0.0010236182 0.0009845237          854 
   83600   0.56877604   -7.5311882    1.0249349 0.0010216656 0.00098284037          855 
   83700   0.60803133   -7.5636829     1.034571 0.0010300388 0.00098118897          858 
   83800    0.6033743   -7.5198134    1.0527843 0.0010469215 0.00097965803          854 
   83900   0.59831447   -7.5455978    1.0531906 0.0010460773 0.00097818886          859 
   84000   0.58200499   -7.5693228    1.0554386 0.0010470621 0.00097672837          854 
   84100   0.59973371   -7.5320219    1.0501908 0.0010406171 0.00097526874          853 
   84200   0.61534037    -7.535576    1.0550966 0.0010442366 0.00097381585          861 
   84300    0.6297796   -7.5928089    1.0401043 0.0010281774 0.00097232731          857 
   84400   0.62751729   -7.5552269    1.0317409 0.0010187015 0.00097074557          858 
   84500   0.60502664   -7.5011324    1.0355408 0.0010212434 0.00096916641          854 
   84600   0.62857398   -7.5407846    1.0239242 0.0010085936 0.00096751475          853 
   84700   0.59665727   -7.5227747    1.0248118  0.001008276 0.00096585538          855 
   84800   0.59881261   -7.5667296    1.0255515  0.001007814 0.00096418896          851 
   84900   0.62969387   -7.5328306    1.0410279 0.0010218177 0.00096257929          859 
   85000     0.593826    -7.522955    1.0391357 0.0010187605 0.00096105822          855 
   85100   0.58257539   -7.5471413    1.0473935 0.0010256497 0.00095956083          855 
   85200   0.62236906   -7.5238676     1.045145 0.0010222467 0.00095808025          853 
   85300    0.6166753   -7.5580623    1.0321827 0.0010083848 0.00095653095          857 
   85400    0.5893045   -7.5675946    1.0238472 0.00099907024 0.00095492403          859 
   85500   0.61732873   -7.5355127    1.0304198 0.0010043078 0.00095329561          857 
   85600   0.61198669   -7.5275443    1.0358532 0.0010084241 0.00095174104          858 
   85700   0.59239895   -7.5729564    1.0344014 0.0010058357 0.00095017379          856 
   85800   0.61368752   -7.5387846    1.0367362 0.0010069311 0.00094862464          858 
   85900   0.57833243   -7.5459331    1.0372682 0.0010062749 0.00094709583          855 
   86000   0.59466591   -7.5597639    1.0392939 0.0010070677 0.00094557082          859 
   86100   0.61676988   -7.4923949    1.0377622 0.0010044156 0.0009440721          857 
   86200   0.61857693   -7.5943963    1.0512055 0.0010162466 0.00094260657          856 
   86300    0.5965678   -7.5064526    1.0527142 0.0010165258 0.00094119329          858 
   86400   0.59790474   -7.5205582    1.0477091 0.0010105219 0.00093979522          855 
   86500   0.58682209    -7.568659    1.0486044 0.0010102162 0.00093833979          858 
   86600   0.60664389   -7.5671082    1.0624533 0.0010223762 0.00093694829          858 
   86700   0.60652954   -7.5249882    1.0491391 0.0010083997 0.00093556197          855 
   86800   0.60135141   -7.5666844    1.0477027  0.001005859 0.0009341402          855 
   86900   0.57286959   -7.5839101    1.0376459 0.00099505748 0.00093266379          857 
   87000   0.60499898   -7.5169168    1.0338284 0.00099025707 0.00093114283          860 
   87100   0.59070701   -7.5325516    1.0329881 0.00098831618 0.00092961188          857 
   87200   0.60138582   -7.5706186    1.0488539 0.0010023451 0.00092814178          852 
   87300     0.594341   -7.5113816    1.0397619 0.00099251799 0.00092669957          859 
   87400    0.5919136   -7.5099947    1.0549048 0.0010058207 0.00092528059          854 
   87500   0.58691211   -7.5484968    1.0484682 0.00099854111 0.00092390303          849 
   87600   0.60146574   -7.5494603    1.0432831 0.00099246871 0.0009224667          856 
   87700   0.60294491   -7.5315737    1.0456177 0.00099355534 0.0009210367          858 
   87800   0.60637248   -7.5461571    1.0534518 0.00099985931 0.00091964501          857 
   87900   0.59881214   -7.5647955     1.046841 0.00099245453 0.00091824213          859 
   88000   0.59411193   -7.5475704    1.0600335 0.0010038196 0.00091689882          855 
   88100   0.61110647   -7.5422806    1.0664246 0.0010087255 0.00091558814          855 
   88200   0.57672661   -7.4961754    1.0523329 0.0009942677 0.00091427118          851 
   88300   0.59877128   -7.5410756    1.0510843 0.00099196326 0.00091288047          853 
   88400   0.60119261    -7.509392    1.0405946 0.00098095263 0.00091146811          854 
   88500   0.58806092   -7.5612596    1.0458332 0.00098477698 0.00091004124          856 
   88600   0.60896993   -7.5616759     1.034066 0.00097259785 0.00090859457          857 
   88700   0.60715296   -7.4925805    1.0349437 0.00097232593 0.00090712107          857 
   88800   0.57377244   -7.5666171    1.0375836 0.00097370833 0.00090565443          857 
   88900   0.59888722   -7.5599276    1.0485471 0.00098289008 0.00090422474          855 
   89000    0.6016672   -7.4985349     1.052964 0.00098592138 0.00090285168          852 
   89100   0.63733892   -7.5499068     1.058857 0.00099032642 0.00090155543          855 
   89200   0.58946706   -7.4933127    1.0382336 0.0009699492 0.00090014889          856 
   89300   0.59190288    -7.582069    1.0457091 0.00097583898 0.00089873755          850 
   89400   0.60206253   -7.5410128    1.0343647 0.00096417293 0.00089727824          859 
   89500    0.6140071   -7.5205175    1.0420888 0.00097028756 0.00089583763          851 
   89600   0.60964839   -7.5546823    1.0534625 0.0009797828 0.00089447241          855 
   89700    0.5998547   -7.5693611    1.0569468 0.00098192754 0.00089318002          857 
   89800   0.62055567   -7.5367678    1.0524753 0.00097668454 0.00089185069          858 
   89900   0.63476832   -7.5603276     1.041872 0.00096576932 0.00089050343          859 
   90000   0.61779261   -7.5790463    1.0304412 0.00095411218 0.00088905419          859 
   90100   0.60555579   -7.5512428    1.0354408 0.0009576774 0.0008876096          859 
   90200   0.62118177   -7.5575445    1.0338343 0.00095513149 0.00088616126          861 
   90300    0.6133928   -7.5360691    1.0284656 0.00094911919 0.00088469905          860 
   90400   0.58947449   -7.5401303    1.0330569 0.00095230172 0.00088323701          855 
   90500   0.59964184   -7.5568392    1.0388376 0.00095657233 0.00088181852          860 
   90600   0.60167067   -7.5191533    1.0475802 0.00096355795 0.00088044805          855 
   90700   0.58333927   -7.5630081    1.0271065 0.00094368474 0.00087902237          859 
   90800   0.60819241   -7.5729686    1.0421811 0.00095648044 0.00087759935          858 
   90900   0.60695722   -7.5038928    1.0568765 0.00096890035 0.00087627963          855 
   91000   0.59365151   -7.5356478    1.0607431 0.0009713765 0.00087503298          857 
   91100   0.60880808   -7.5470216    1.0446441 0.00095558372 0.00087374025          859 
   91200   0.62833277   -7.5408395    1.0393132 0.00094966484 0.00087236877          847 
   91300   0.58159221   -7.5231261    1.0248537 0.00093542688 0.00087094543          859 
   91400   0.61286882   -7.5776055    1.0112326 0.0009219845 0.00086943504          860 
   91500   0.62483713   -7.5147667    1.0129889 0.00092257643 0.00086787878          857 
   91600   0.59214409   -7.5513276    1.0237884 0.00093139412 0.00086637926          858 
   91700   0.59198059   -7.5293186     1.028404 0.00093457291 0.00086491521          859 
   91800   0.58933076   -7.5240459    1.0473109 0.00095071794 0.00086355775          861 
   91900   0.59157011   -7.5555396    1.0553701 0.0009569914 0.00086228167          859 
   92000   0.55917765   -7.5016902    1.0557129 0.00095626171 0.00086100863          854 
   92100   0.61430215   -7.5577553    1.0493738 0.00094948767 0.00085972988          855 
   92200   0.60880517   -7.5535379    1.0388744 0.0009389682 0.00085840953          852 
   92300   0.61556284   -7.5991103    1.0316947 0.00093146867 0.0008570399          858 
   92400   0.59364002   -7.5313036    1.0350831 0.00093351651 0.00085562923          857 
   92500   0.60044561   -7.5347793    1.0326107 0.00093027991 0.00085424447          852 
   92600   0.58779264    -7.549912    1.0329826   0.00092961   0.00085287          853 
   92700    0.5970943    -7.576026    1.0258217 0.00092216983 0.0008514426          856 
   92800   0.60890783   -7.5263701    1.0202011 0.00091612886 0.00084999391          852 
   92900   0.59717627   -7.5640765    1.0266588 0.00092093543 0.00084856603          852 
   93000   0.59786119    -7.525917    1.0299782 0.00092291955 0.0008471643          855 
   93100   0.60671908   -7.5497604    1.0286909 0.00092077595  0.000845776          858 
   93200   0.59253292   -7.5321959    1.0346732 0.00092513701 0.00084438403          858 
   93300   0.58082204   -7.5657595    1.0347831 0.00092424355 0.0008430417          859 
   93400   0.59107907   -7.5352072    1.0466315 0.00093382538 0.00084170632          860 
   93500   0.63557211   -7.5605277    1.0460483 0.00093230687 0.00084043906          859 
   93600   0.59125207   -7.5622317    1.0515761 0.00093623226 0.00083918288          850 
   93700   0.59009097   -7.5161206    1.0436792 0.00092820991 0.00083791349          858 
   93800   0.64742435   -7.5334628    1.0507054 0.00093346249 0.00083667038          862 
   93900   0.61015293   -7.5582516    1.0487488 0.00093073196 0.00083542475          858 
   94000   0.60818926   -7.5837068    1.0452392 0.00092663046 0.00083417187          858 
   94100   0.59934982   -7.4832738    1.0417558 0.00092256091 0.00083288541          860 
   94200   0.59816078   -7.5380141    1.0389928 0.00091913731 0.00083158168          856 
   94300   0.58372245    -7.559469     1.042503 0.00092126461 0.00083028393          859 
   94400   0.57195416   -7.5628257    1.0418049 0.00091967236 0.00082899638          856 
   94500   0.58188246   -7.5450181    1.0380603 0.00091539712 0.0008277029          856 
   94600   0.59601163   -7.5615347    1.0401201 0.00091624395 0.00082641266          852 
   94700   0.56729569   -7.5045474    1.0361722 0.00091180232 0.00082509332          859 
   94800   0.58072232   -7.5543499    1.0442076 0.00091790399 0.00082381423          860 
   94900   0.58803578   -7.5417598    1.0475646 0.00091988461 0.00082256637          856 
   95000   0.59674601    -7.562873    1.0513953 0.00092227657 0.00082133375          858 
   95100   0.61359155   -7.5190011    1.0394771 0.00091086319 0.00082005653          859 
   95200   0.61768804   -7.5524806    1.0446098 0.0009143993 0.00081880775          857 
   95300     0.573043   -7.5408045    1.0419392 0.00091110456 0.00081754405          854 
   95400   0.58544833   -7.5300474     1.033653 0.00090291145 0.00081626206          856 
   95500   0.59410038    -7.540725    1.0422557 0.00090947267 0.00081498282          857 
   95600   0.58120688   -7.5638359    1.0364745 0.00090348196 0.00081372492          859 
   95700   0.58995982   -7.5835124    1.0439152 0.00090901705 0.00081244439          857 
   95800   0.60278695   -7.5203445    1.0372133 0.00090223847 0.00081118415          853 
   95900   0.57784197   -7.5386678    1.0345622 0.0008989939 0.0008099096          858 
   96000   0.59312041   -7.5742744    1.0353814 0.00089876853 0.00080860646          856 
   96100   0.60952571    -7.528013    1.0416267 0.00090324896 0.0008073443          857 
   96200   0.60450454   -7.5070077    1.0505632 0.00091005129 0.00080611666          856 
   96300   0.60891009   -7.5747294     1.055017 0.00091296036 0.00080495155          857 
   96400   0.59242108   -7.5325416    1.0584163 0.00091495183 0.00080380647          856 
   96500    0.5860573   -7.5129547    1.0452339 0.0009026199 0.00080264247          860 
   96600   0.59521843   -7.5516608    1.0385726 0.00089593906 0.00080138602          856 
   96700   0.59254184   -7.5660041    1.0324316 0.00088972045 0.00080010481          856 
   96800   0.59952001   -7.5375608    1.0273097 0.00088439197 0.00079879784          859 
   96900   0.60898359   -7.5374611    1.0412434 0.00089546214 0.00079753411          859 
   97000    0.6017133   -7.5645616    1.0420164 0.00089520313 0.00079631218          858 
   97100   0.61694039   -7.5871173    1.0448777 0.00089673679 0.00079511499          859 
   97200   0.59775592   -7.5465959    1.0500516 0.00090024995 0.00079393877          859 
   97300   0.59854575   -7.5468899    1.0567632 0.00090507295 0.00079280147          862 
   97400   0.61401819   -7.5461737    1.0445297 0.00089367699 0.00079163853          861 
   97500   0.60170136   -7.5409101    1.0432945 0.00089170466 0.00079042368          856 
   97600   0.58993146    -7.558632    1.0380428 0.00088630702 0.00078921085          856 
   97700    0.6058061   -7.5728759    1.0365774 0.00088414991 0.00078797382          857 
   97800   0.61039012   -7.5219651    1.0462506 0.00089148822 0.00078677234          855 
   97900   0.63022398   -7.5317428    1.0536528 0.00089687842 0.00078560668          860 
   98000   0.58589033   -7.5521426    1.0522981 0.00089481135 0.00078447861          854 
   98100   0.60329084   -7.5604793    1.0439504 0.00088680801 0.00078330161          853 
   98200   0.60144076   -7.5437458    1.0263581 0.00087097598 0.0007820728          856 
   98300   0.58801428   -7.5768165    1.0252016 0.0008691095 0.00078078005          859 
   98400   0.60920856   -7.5228699    1.0341172 0.00087577672 0.00077953812          858 
   98500   0.59689342    -7.573809    1.0349314 0.0008755765 0.00077829633          859 
   98600   0.61635409   -7.5986391    1.0390624 0.00087817981 0.00077710344          856 
   98700   0.59408278   -7.5039325    1.0363007 0.00087495838 0.00077589727          855 
   98800   0.62717866   -7.5504735    1.0376476 0.0008752088 0.00077469986          857 
   98900    0.5956166   -7.5498308    1.0325368 0.00087001748 0.0007734847          855 
   99000   0.60163022   -7.5475827     1.032963 0.00086949746 0.00077225113          859 
   99100   0.61205326   -7.5396889    1.0333603 0.00086895418 0.00077105459          859 
   99200   0.61418592   -7.5269821    1.0390362 0.00087284625 0.00076984765          857 
   99300   0.58390793   -7.5473009    1.0398833 0.00087267812 0.00076865646          857 
   99400    0.5934959   -7.5350823     1.044835 0.00087595156 0.00076751001          861 
   99500   0.61907295   -7.4975289    1.0478604  0.000877605 0.0007663719          863 
   99600   0.62271555   -7.5412807    1.0560055 0.00088353873 0.00076524944          852 
   99700   0.58587877   -7.5077806    1.0511794 0.00087861867 0.00076416909          854 
   99800   0.60855149   -7.5781345    1.0526495 0.0008789658 0.00076306323          856 
   99900   0.60447256    -7.526558    1.0489047 0.00087496217 0.00076195762          856 
  100000   0.57462522   -7.5474463    1.0550584 0.00087921536 0.00076084713          856 
  100100   0.57281149   -7.5726026    1.0470016 0.0008716297 0.00075975277          860 
  100200   0.58311394   -7.5087124    1.0356076 0.00086128373 0.00075859796          858 
  100300   0.59660217   -7.5261998    1.0377962 0.0008622434  0.000757412          861 
  100400   0.60932097   -7.5778748    1.0443859 0.0008668542 0.00075626923          860 
  100500   0.59105073   -7.5680366    1.0360993 0.0008591205 0.00075511794          858 
  100600   0.62888437   -7.5412746    1.0357183 0.00085795091 0.00075395007          857 
  100700   0.60843981   -7.5404032    1.0396464 0.00086034951 0.00075279872          854 
  100800    0.5641908   -7.5748042    1.0312269 0.00085253548 0.00075162695          862 
  100900   0.57657088   -7.5462346    1.0358763 0.00085553047 0.0007504373          858 
  101000   0.58653347   -7.5132748    1.0549705 0.0008704377 0.00074932475          862 
  101100   0.56480932   -7.5604847     1.057067 0.00087130478 0.00074827077          861 
  101200    0.5771248   -7.5549804    1.0521257 0.00086637491 0.00074720309          857 
  101300    0.6208694   -7.5423231    1.0510056 0.00086459818 0.00074613329          858 
  101400   0.60217102   -7.5772488    1.0487669 0.00086190572 0.00074504846          857 
  101500   0.56406334   -7.5625212    1.0465198 0.00085921165 0.0007439605          857 
  101600   0.59588801   -7.5037865     1.034553 0.00084855066 0.00074282669          855 
  101700   0.59482756   -7.5448366    1.0210968 0.00083669024 0.00074163398          858 
  101800   0.58560751   -7.5786913    1.0204469 0.00083533634 0.00074040941          862 
  101900   0.60142114   -7.5392064    1.0230199 0.00083662082 0.0007391962          857 
  102000   0.59843933   -7.5307133    1.0273756 0.00083935918 0.00073800319          857 
  102100   0.56947882   -7.5735601    1.0267738 0.00083804587 0.00073681745          857 
  102200   0.58945721   -7.5339779    1.0439552 0.00085123549 0.00073567481          858 
  102300   0.59591744   -7.5152006    1.0638248 0.0008665891 0.0007346477          855 
  102400   0.58955542    -7.572566    1.0626861 0.00086481613 0.00073366151          858 
  102500   0.60678566    -7.557198    1.0626344 0.00086393036 0.00073266432          860 
  102600   0.60371032   -7.5521507    1.0569687 0.00085848657 0.00073165981          856 
  102700     0.639834   -7.5086587    1.0599211 0.00086004635 0.00073065189          857 
  102800   0.60546086   -7.5339546    1.0435849 0.00084596698 0.0007296162          858 
  102900   0.60045909   -7.5545003     1.033037 0.00083660269 0.00072848206          860 
  103000   0.61138737   -7.4996442    1.0398901 0.00084133502 0.00072737853          859 
  103100   0.60592402   -7.5518362    1.0398852 0.00084051503 0.00072626844          859 
  103200    0.5993452    -7.551218    1.0444712 0.00084340377 0.00072518697          856 
  103300   0.58984805   -7.5678228     1.029882 0.00083081804 0.00072408082          855 
  103400   0.61716917   -7.5632269     1.040162 0.00083829946 0.00072295231          859 
  103500   0.61969465   -7.5734866    1.0427362 0.00083956219 0.00072188585          859 
  103600   0.59137553    -7.521025    1.0379923 0.00083493592 0.00072079471          857 
  103700   0.57208907   -7.6069935    1.0348631 0.00083161609 0.00071970014          860 
  103800   0.58851936   -7.5613514    1.0397102 0.0008347063 0.00071861045          852 
  103900   0.60957103   -7.5315124    1.0428273  0.000836403 0.00071753635          854 
  104000   0.57995712   -7.5405141    1.0574737 0.00084733471 0.00071653027          858 
Loop time of 192.194 on 12 procs for 100000 steps with 864 atoms

Performance: 89909.033 tau/day, 520.307 timesteps/s
99.4% CPU use with 12 MPI tasks x no OpenMP threads

MPI task timing breakdown:
Section |  min time  |  avg time  |  max time  |%varavg| %total
---------------------------------------------------------------
Pair    | 10.158     | 10.957     | 11.627     |  14.4 |  5.70
Neigh   | 0.9614     | 0.99312    | 1.0261     |   2.0 |  0.52
Comm    | 6.0833     | 6.7705     | 7.7426     |  20.3 |  3.52
Output  | 3.8314     | 3.8325     | 3.84       |   0.1 |  1.99
Modify  | 167.92     | 168.25     | 168.56     |   1.7 | 87.54
Other   |            | 1.386      |            |       |  0.72

Nlocal:        72.0000 ave          76 max          70 min
Histogram: 2 4 0 2 0 2 1 0 0 1
Nghost:        1656.42 ave        1670 max        1649 min
Histogram: 2 1 4 1 1 0 1 1 0 1
Neighs:        8857.75 ave       10072 max        8223 min
Histogram: 2 3 2 1 2 0 0 0 1 1
FullNghs:      17797.4 ave       19119 max       16706 min
Histogram: 1 0 2 2 2 3 1 0 0 1

Total # of neighbors = 213569
Ave neighs/atom = 247.18634
Neighbor list builds = 4289
Dangerous builds = 0

#clear
#
#next RN
#
#jump SELF



Total wall time: 0:03:12
