
units lj                  # Use reduced LJ style units
atom_style atomic         # Uncharged point particles
atom_modify map hash      # Needed for indexing of clusters etc
                          # Used to be able to find where atoms are in relation to each other.

# Define a lattice with which to populate the simulation cell. With units
# set to 'lj' the second argument to the lattice command is the reduced
# density rho* and the spacings are multiples of that required to acheive
# that density. Also define a simulation cell called 'box' in lattice units
# and fill it with atoms. Here we're creating a box which is ten lattice
# constants in each direction.
lattice fcc 1.0 spacing 1 1 1                 # All equal sizes - gives the right reduced density.
Lattice spacing in x,y,z = 1.5874011 1.5874011 1.5874011

region box block 0 6 0 6 0 6 units lattice # Defines a region, "box", in lattice units
create_box 1 box                              # Creates a simulation box as specified above,
Created orthogonal box = (0.0000000 0.0000000 0.0000000) to (9.5244063 9.5244063 9.5244063)
  2 by 2 by 3 MPI processor grid
                                              # with one type of atom
create_atoms 1 box                            # Creates particles on lattice points
Created 864 atoms
  using lattice units in orthogonal box = (0.0000000 0.0000000 0.0000000) to (9.5244063 9.5244063 9.5244063)
  create_atoms CPU = 0.001 seconds


# Set the mass of the first (and only) atom type.
mass 1 1.0

# Lennard-Jones interactions between particles, 3.5 sigma cut-off. Apply
# long range tail corrections to energy and pressure and set all coefficients
# to unity since we work in reduced units here. Note that this doesn't shift
# the potential such that it goes to zero at the cutoff. That would require
# pair_modify('shift', 'yes').
pair_style lj/cut  3.5      # non-GPU version
pair_modify tail  yes
pair_coeff 1  1  1.0  1.0   # Intearaction between 1 and 1 set with epsilon = 1 and sigma = 1

write_data data.*
System init for write_data ...
Neighbor list info ...
  update every 1 steps, delay 10 steps, check yes
  max neighbors/atom: 2000, page size: 100000
  master list distance cutoff = 3.8
  ghost atom cutoff = 3.8
  binsize = 1.9, bins = 6 6 6
  1 neighbor lists, perpetual/occasional/extra = 1 0 0
  (1) pair lj/cut, perpetual
      attributes: half, newton on
      pair build: half/bin/atomonly/newton
      stencil: half/bin/3d
      bin: standard

#############################
#   M E L T   S Y S T E M   #
#############################

velocity all create 2.4 2750902 mom yes dist gaussian # Assign velocities
                                                    # Temperature 2.4, random number seed, zero linear momentum
						                                                        # Gaussian distribution

timestep 0.002   # simulation timestep
thermo 100       # output thermodynamic data every 100 steps

# Define a fix  in this case with index 1 applied to all
# particles in the simulation. This fix is for simulations
# in the anisotropic NPT ensemble. Note that we use the MTK
# correction.
fix 1 all npt temp 2.4 2.4 0.1 iso 5.68 5.68 0.5 mtk yes tchain 5 pchain 5 # Use NPT ensemble
                                                                         # Set temperature and pressure and damping
                                                                         # Numbers of thermostats in chain and in barostat
run 1000         # run for 10000 steps
Per MPI rank memory allocation (min/avg/max) = 3.633 | 3.633 | 3.634 Mbytes
Step Temp E_pair E_mol TotEng Press Volume 
       0          2.4   -8.3859253            0    -4.790092     -2.24275          864 
     100    1.3007594   -6.4407842            0   -4.4919034    5.3582762    891.69205 
     200    1.5828213   -6.0796178            0   -3.7081338    6.4338598    907.46239 
     300    1.7629056     -5.73851            0   -3.0972122    5.5953229    954.02439 
     400    1.8733232   -5.2785237            0   -2.4717912    6.0585808    994.36537 
     500      2.02574   -4.9360708            0   -1.9009777    5.7478153    1042.8978 
     600    2.2112838   -4.6895875            0   -1.3765009    5.7138268    1079.0368 
     700    2.3146746   -4.4629638            0  -0.99497044    5.6088298    1118.0222 
     800    2.4734008     -4.39503            0   -0.6892229    5.7937797    1123.7282 
     900    2.4206618   -4.2767239            0  -0.64993368    5.5531987    1146.9555 
    1000    2.3618098   -4.2459295            0  -0.70731524    5.7000582    1143.3852 
Loop time of 0.201281 on 12 procs for 1000 steps with 864 atoms

Performance: 858502.089 tau/day, 4968.183 timesteps/s
99.5% CPU use with 12 MPI tasks x no OpenMP threads

MPI task timing breakdown:
Section |  min time  |  avg time  |  max time  |%varavg| %total
---------------------------------------------------------------
Pair    | 0.067292   | 0.079951   | 0.10814    |   4.7 | 39.72
Neigh   | 0.011754   | 0.013378   | 0.016681   |   1.4 |  6.65
Comm    | 0.058124   | 0.08957    | 0.10373    |   5.0 | 44.50
Output  | 0.00021053 | 0.00021855 | 0.0002603  |   0.0 |  0.11
Modify  | 0.01597    | 0.016471   | 0.016814   |   0.2 |  8.18
Other   |            | 0.001692   |            |       |  0.84

Nlocal:        72.0000 ave          80 max          66 min
Histogram: 2 1 2 2 1 0 2 0 0 2
Nghost:        1314.75 ave        1327 max        1295 min
Histogram: 1 0 0 2 3 0 0 1 2 3
Neighs:        6211.67 ave        7136 max        5326 min
Histogram: 2 0 0 2 1 4 1 0 0 2

Total # of neighbors = 74540
Ave neighs/atom = 86.273148
Neighbor list builds = 80
Dangerous builds = 2

# Equilibrate just above the melting temperature to avoid step fn in T

fix 1 all npt temp 1.25 1.25 0.1 iso 5.68 5.68 0.5 mtk yes tchain 5 pchain 5
run 1000
Per MPI rank memory allocation (min/avg/max) = 3.634 | 3.634 | 3.634 Mbytes
Step Temp E_pair E_mol TotEng Press Volume 
    1000    2.3618098   -4.2459295            0  -0.70731524    5.7000582    1143.3852 
    1100    1.8617945   -4.5967525            0    -1.807293    5.9593679    1083.5566 
    1200      1.66126   -5.0091582            0   -2.5201524    5.9308167    1028.0056 
    1300    1.4533368   -5.3154554            0   -3.1379734    5.5185254    997.93023 
    1400    1.3100587   -5.5224566            0    -3.559643    5.2858775     978.0358 
    1500    1.3306301   -5.7450087            0   -3.7513736    5.2687861    956.68836 
    1600    1.2302857    -5.777427            0   -3.9341343     5.385203    950.58576 
    1700    1.2545134   -5.8251615            0   -3.9455694    5.6370291    940.07281 
    1800    1.2669685   -5.8434457            0   -3.9451925    6.1076728    931.13358 
    1900    1.2975362   -5.8185374            0   -3.8744858    5.5765884    942.23221 
    2000    1.2225624   -5.8503078            0   -4.0185867    5.1330896    948.19804 
Loop time of 0.173813 on 12 procs for 1000 steps with 864 atoms

Performance: 994174.692 tau/day, 5753.326 timesteps/s
99.8% CPU use with 12 MPI tasks x no OpenMP threads

MPI task timing breakdown:
Section |  min time  |  avg time  |  max time  |%varavg| %total
---------------------------------------------------------------
Pair    | 0.070639   | 0.078433   | 0.092086   |   2.1 | 45.13
Neigh   | 0.0098872  | 0.010792   | 0.01212    |   0.6 |  6.21
Comm    | 0.052971   | 0.06769    | 0.075974   |   2.4 | 38.94
Output  | 0.00018967 | 0.00019476 | 0.00023202 |   0.0 |  0.11
Modify  | 0.014289   | 0.01484    | 0.015262   |   0.2 |  8.54
Other   |            | 0.001863   |            |       |  1.07

Nlocal:        72.0000 ave          79 max          65 min
Histogram: 1 1 0 4 0 1 1 3 0 1
Nghost:        1466.08 ave        1476 max        1447 min
Histogram: 1 1 0 0 2 0 0 4 1 3
Neighs:        7466.67 ave        8131 max        6694 min
Histogram: 1 0 2 0 3 1 3 0 0 2

Total # of neighbors = 89600
Ave neighs/atom = 103.70370
Neighbor list builds = 67
Dangerous builds = 0


# Small amount of linear quench

fix 1 all npt temp 1.25 ${temp} 0.1 iso 5.68 5.68 0.5 mtk yes tchain 5 pchain 5
fix 1 all npt temp 1.25 0.85 0.1 iso 5.68 5.68 0.5 mtk yes tchain 5 pchain 5
run 2000
Per MPI rank memory allocation (min/avg/max) = 3.634 | 3.634 | 3.634 Mbytes
Step Temp E_pair E_mol TotEng Press Volume 
    2000    1.2225624   -5.8503078            0   -4.0185867    5.1330896    948.19804 
    2100     1.251309   -5.8628121            0    -3.988021    5.4133305    941.34591 
    2200    1.2256982   -5.9082258            0   -4.0718065    5.8071332    929.20787 
    2300    1.1765861   -5.9215888            0   -4.1587523    6.2933952    919.23424 
    2400     1.175843   -5.9768434            0   -4.2151203    5.8973496    921.06424 
    2500     1.126669    -5.984143            0   -4.2960954    5.7570854    920.86548 
    2600    1.1070716   -6.0429854            0      -4.3843    5.5732009    918.88596 
    2700    1.1077018   -6.0481779            0   -4.3885483    5.5633827    918.91355 
    2800     1.088144   -6.1277082            0   -4.4973813    5.5884593    911.90549 
    2900    1.0802153    -6.128461            0   -4.5100135    5.5896101    911.52208 
    3000    1.0193008   -6.1206399            0   -4.5934583    5.8145968    907.14462 
    3100     1.047732   -6.1897961            0   -4.6200171    5.6757669    904.71932 
    3200    1.0005246   -6.2540139            0    -4.754964    5.6119409    899.98745 
    3300   0.98085398   -6.2800719            0   -4.8104938    5.5505882    898.01037 
    3400   0.94514426   -6.3320582            0   -4.9159827    6.0734391    885.27012 
    3500   0.96409256   -6.3155656            0   -4.8711006    6.2159116    884.84299 
    3600   0.98534368   -6.2665189            0   -4.7902141    6.1409519    891.18928 
    3700   0.97025621   -6.3595501            0   -4.9058502    5.9247444    885.55623 
    3800    0.9062313   -6.4085888            0   -5.0508151    5.9431784    881.46666 
    3900   0.84202167   -6.3999948            0   -5.1384242    5.8030141    882.66832 
    4000   0.87220277   -6.4264888            0   -5.1196989    5.7559979     881.9086 
Loop time of 0.36567 on 12 procs for 2000 steps with 864 atoms

Performance: 945114.936 tau/day, 5469.415 timesteps/s
99.8% CPU use with 12 MPI tasks x no OpenMP threads

MPI task timing breakdown:
Section |  min time  |  avg time  |  max time  |%varavg| %total
---------------------------------------------------------------
Pair    | 0.15477    | 0.17104    | 0.20927    |   3.3 | 46.77
Neigh   | 0.016901   | 0.018373   | 0.021978   |   1.0 |  5.02
Comm    | 0.1004     | 0.1416     | 0.15837    |   3.9 | 38.72
Output  | 0.00038438 | 0.00039446 | 0.00046483 |   0.0 |  0.11
Modify  | 0.028714   | 0.029869   | 0.030827   |   0.4 |  8.17
Other   |            | 0.004395   |            |       |  1.20

Nlocal:        72.0000 ave          75 max          68 min
Histogram: 2 0 1 0 1 2 0 2 3 1
Nghost:        1544.58 ave        1552 max        1533 min
Histogram: 1 0 0 1 0 4 2 2 0 2
Neighs:        8067.00 ave        8654 max        7576 min
Histogram: 3 1 0 1 2 2 0 0 0 3

Total # of neighbors = 96804
Ave neighs/atom = 112.04167
Neighbor list builds = 111
Dangerous builds = 0

#############################
# F R E E Z E  S Y S T E M  #
#############################

# Define solid atoms. This closely follows ten Wolde  Ruiz-Montero and Frenkel  Faraday Discuss  1996  104  93-110
# Compute components of the per-atom q6 vector
compute q6 all orientorder/atom degrees 1 6 components 6 nnn NULL cutoff 1.3 # compute the Q6 parameter.
                                                                             # Use all neighbours within 1.3 unit cell.

# get number of connections
compute coord_number all coord/atom orientorder q6 0.5

# An atom is solid if it has 8 or more connections (of a possible 14)
variable is_solid atom c_coord_number>=8
group solid dynamic all var is_solid    # Must be dynamic to update
dynamic group solid defined

# do clustering
compute cluster solid cluster/atom 1.3 # Create a cluster where all atoms within are solid and max 1.3 units from another member

# define chunks one chunk per cluster
compute clus_chunks solid chunk/atom c_cluster nchunk every compress yes  # Says which atoms are in which chunk

# count the size of each chunk
compute size_chunks solid property/chunk clus_chunks count


# Find the maximum entry in the vector of chunk sizes
variable max_n equal max(c_size_chunks)


# Thermo style which includes this variable
# thermo_style custom step temp pe vol v_max_n

thermo ${N}  # Print the thermo information every 100 steps
thermo 100  

# Reset the npt fix at a lower temperature (below freezing)

compute myRDF all rdf 100
fix 2 all ave/time 1 50 100 c_myRDF[*] file pcf.rdf mode vector


compute msd all msd com yes
variable twopoint equal c_msd[4]/6/(step*dt+1.0e-6)
fix 9 all vector 10 c_msd[4]
variable fit equal slope(f_9)/6/(10*dt)
thermo_style custom step temp pe c_msd[4] v_twopoint v_fit v_max_n


fix 1  all npt temp  ${temp} ${temp}  0.1  iso  5.68  5.68  0.5  mtk yes tchain  5  pchain  5
fix 1  all npt temp  0.85 ${temp}  0.1  iso  5.68  5.68  0.5  mtk yes tchain  5  pchain  5
fix 1  all npt temp  0.85 0.85  0.1  iso  5.68  5.68  0.5  mtk yes tchain  5  pchain  5

dump dmp2 all dcd ${N} traj.dcd
dump dmp2 all dcd 100 traj.dcd
dump dmp3 all dcd ${N} traj_unwrap.dcd
dump dmp3 all dcd 100 traj_unwrap.dcd
dump_modify dmp3 unwrap yes


# fix rnuntil all halt ${N} v_max_n >= 3980 error soft message no   # Stop when solidified

run 100000 # 5000000  # Run for this many steps
Neighbor list info ...
  update every 1 steps, delay 10 steps, check yes
  max neighbors/atom: 2000, page size: 100000
  master list distance cutoff = 3.8
  ghost atom cutoff = 3.8
  binsize = 1.9, bins = 6 6 6
  5 neighbor lists, perpetual/occasional/extra = 1 4 0
  (1) pair lj/cut, perpetual
      attributes: half, newton on
      pair build: half/bin/atomonly/newton
      stencil: half/bin/3d
      bin: standard
  (2) compute orientorder/atom, occasional
      attributes: full, newton on
      pair build: full/bin/atomonly
      stencil: full/bin/3d
      bin: standard
  (3) compute coord/atom, occasional
      attributes: full, newton on
      pair build: full/bin/atomonly
      stencil: full/bin/3d
      bin: standard
  (4) compute cluster/atom, occasional
      attributes: full, newton on
      pair build: full/bin/atomonly
      stencil: full/bin/3d
      bin: standard
  (5) compute rdf, occasional, copy from (1)
      attributes: half, newton on
      pair build: copy
      stencil: none
      bin: none
Per MPI rank memory allocation (min/avg/max) = 9.699 | 9.701 | 9.702 Mbytes
Step Temp PotEng c_msd[4] v_twopoint v_fit v_max_n 
    4000   0.87220277   -6.4264888 1.582287e-30 3.2964308e-32 8.3333333e+20            6 
    4100   0.86326961   -6.5257799  0.041012402 0.0008335853  0.037424842            5 
    4200    0.8341622   -6.4906901  0.071394449 0.0014165564   0.03117631            6 
    4300    0.8942133    -6.498965  0.091391072 0.0017711446  0.026180468            3 
    4400   0.85201988   -6.5142935   0.11180351 0.0021174905  0.022737123            1 
    4500    0.8385547   -6.5366006   0.13270204 0.0024574449  0.021030194            3 
    4600   0.89978761   -6.4867453    0.1508849 0.0027334218  0.019831767            5 
    4700   0.87301856    -6.497252   0.16885628 0.0029939053  0.019000257           10 
    4800   0.84706084    -6.523345   0.19219718 0.0033367563  0.018320329            4 
    4900    0.8505713   -6.5084033   0.20676436 0.0035164004  0.018060568            2 
    5000   0.85234296   -6.4946605     0.222202 0.0037033663  0.017516119            8 
    5100   0.84423507   -6.5184687   0.23707191 0.0038737237  0.016978634            4 
    5200   0.87098509   -6.4868934   0.25094082 0.0040214871  0.016477233            6 
    5300   0.84115187   -6.5282113   0.26658074 0.0041915207  0.016065875            6 
    5400   0.84449454   -6.5948358   0.28216996 0.0043544744  0.015690178            2 
    5500   0.88479028   -6.5513483   0.29517587 0.0044723612  0.015391744            5 
    5600    0.8662033   -6.5108657   0.30502592 0.0045390758  0.015030609           10 
    5700   0.84174103   -6.5378565   0.32349192 0.0047294136  0.014710119            7 
    5800   0.89327293   -6.5173529   0.34279423  0.004925204  0.014529763           11 
    5900   0.87641864   -6.5176343   0.36101959 0.0050991463  0.014413162            5 
    6000   0.86296872   -6.5968435   0.37785281 0.0052479553  0.014355618            4 
    6100   0.86894129   -6.5534446   0.38108218 0.0052060403  0.014215868            3 
    6200   0.83314404   -6.5573895   0.39275064  0.005278906  0.014008719            5 
    6300   0.83639147   -6.5421331   0.39936416 0.0052825943   0.01376459            5 
    6400    0.8546088   -6.5189424   0.42611707 0.0055483989  0.013595482            3 
    6500   0.79933682   -6.5349023   0.43854897 0.0056224223  0.013485695            3 
    6600   0.85238127   -6.5713135   0.44425404 0.0056092677  0.013339568            6 
    6700   0.90121909   -6.5597379   0.46244943 0.0057518582  0.013214091            7 
    6800   0.81870155   -6.5533813   0.48173994 0.0059036753  0.013134851            3 
    6900   0.85126821   -6.5830392   0.49625028 0.0059933604  0.013070987            2 
    7000   0.83800499   -6.5343957   0.51033633 0.0060754321   0.01299812            6 
    7100   0.85993628   -6.5123738   0.53361457 0.0062630814  0.012968324            3 
    7200   0.82872179   -6.4903674     0.562225 0.0065072333  0.012997237            5 
    7300   0.84777461   -6.5747982   0.58752014 0.0067068504  0.013067129            6 
    7400   0.86219362   -6.5293567   0.59470663 0.0066971463  0.013125578            7 
    7500   0.82720831   -6.5748013   0.60678645 0.0067420712   0.01314806            3 
    7600   0.84034513   -6.6005321   0.60938856 0.0066818916  0.013134371           11 
    7700   0.86981554   -6.6197096    0.6296064 0.0068139216  0.013101811           10 
    7800   0.88152779   -6.6119199   0.64381979 0.0068784162  0.013088628           14 
    7900   0.81306815   -6.5790158   0.64485926 0.0068023125  0.013041475            7 
    8000    0.8586712    -6.530237     0.648156 0.0067516246  0.012972133           11 
    8100   0.81334649   -6.4864939   0.64832418 0.0066700015  0.012864305           13 
    8200   0.82555332   -6.5618344   0.65410195 0.0066473771  0.012735429            6 
    8300   0.86111128   -6.5620237   0.67696542 0.0067968412  0.012622838            2 
    8400    0.8619288   -6.4689812    0.6899862 0.0068451008   0.01253767            2 
    8500   0.84466307   -6.4484929   0.72735493 0.0071309302  0.012487235            5 
    8600   0.84717605   -6.5229954   0.73533998  0.007125387  0.012464522            4 
    8700   0.83390178    -6.574953   0.73546496 0.0070446831  0.012406848            5 
    8800   0.85466591   -6.5007629   0.76066489 0.0072032656   0.01235529           10 
    8900   0.86583232   -6.5181413   0.77490643 0.0072556777  0.012328307            4 
    9000   0.83988955   -6.5293517   0.80063918 0.0074133253  0.012302181            4 
    9100   0.84848682   -6.5357022   0.82556121 0.0075600839  0.012310873            6 
    9200   0.81490827   -6.5461651   0.85951991  0.007785506   0.01234381            2 
    9300   0.81831639   -6.5055493   0.86375301 0.0077397219  0.012367729            7 
    9400   0.84013401    -6.477447   0.88791891 0.0078716211  0.012397023            6 
    9500   0.85672762   -6.5429315   0.91358162 0.0080138734   0.01244233            4 
    9600   0.84657264   -6.5364252   0.93439378 0.0081110567  0.012494557            3 
    9700   0.91821759   -6.5350281    0.9354606 0.0080366027  0.012536398            3 
    9800   0.86036519   -6.4958993   0.96629861 0.0082168245  0.012576299            4 
    9900   0.85218512   -6.5453876   0.97771771 0.0082299467  0.012620437            6 
   10000    0.8372733   -6.6025051   0.99458136 0.0082881776  0.012658295            4 
   10100    0.8523653   -6.5561495    1.0096077  0.008330096  0.012691349            6 
   10200   0.84104266   -6.5591861    1.0248993 0.0083733598  0.012723897            3 
   10300   0.88650972   -6.5562615    1.0495045 0.0084911363  0.012754449            6 
   10400   0.88562266   -6.5777931    1.0585194 0.0084817254  0.012787992            2 
   10500    0.8332453   -6.5206835    1.0625668 0.0084330695  0.012802584            3 
   10600   0.85845292   -6.5460098    1.0826511 0.0085114078  0.012823668            9 
   10700   0.84772599   -6.5756999    1.0876559 0.0084708397  0.012828739            9 
   10800    0.8545026   -6.5741567    1.1016085 0.0085000654  0.012836301            5 
   10900   0.84139463   -6.5122995    1.1226596  0.008583024  0.012838006           14 
   11000   0.86966351   -6.5531688    1.1403669 0.0086391428  0.012845078            2 
   11100   0.80982393   -6.5492023    1.1557684 0.0086769395  0.012849103            6 
   11200    0.8718462   -6.5365195    1.1655312 0.0086721071  0.012848333            3 
   11300   0.81608207   -6.5134653    1.1782065 0.0086888381  0.012849971           14 
   11400   0.85161058   -6.5434969     1.188577 0.0086884283  0.012842701            8 
   11500   0.87565272   -6.5009005    1.2135933 0.0087941542  0.012840556            7 
   11600   0.85996407   -6.5086027    1.2177053 0.0087478825  0.012841909            3 
   11700   0.87375616   -6.5832773    1.2320694  0.008775423   0.01283632            9 
   11800   0.82221558   -6.5189172    1.2483835 0.0088162675  0.012834318            7 
   11900   0.89163504   -6.5639203    1.2747083 0.0089265284  0.012831082            4 
   12000   0.84036618   -6.4774711    1.2970777 0.0090074834  0.012838748            2 
   12100   0.90832407   -6.5237703     1.313717 0.0090476377   0.01284896            4 
   12200   0.79484876   -6.4651061    1.3273323 0.0090664774  0.012856476            5 
   12300   0.86250645   -6.5058975    1.3408545 0.0090843795  0.012861601            4 
   12400   0.82539258   -6.5474092     1.370274 0.0092088304  0.012869384            4 
   12500   0.79122786   -6.5295316    1.3806216 0.0092041435   0.01287857            6 
   12600   0.84718024   -6.5720162     1.394481 0.0092227577  0.012887268            7 
   12700   0.86012826   -6.5326743    1.3887029 0.0091122236  0.012886987           13 
   12800   0.85516963   -6.5281651     1.399953 0.0091142768  0.012881468            7 
   12900   0.83773876   -6.5580223    1.3905298 0.0089827506  0.012866632           15 
   13000   0.80504927   -6.5953973       1.4086 0.0090294871  0.012844549            7 
   13100   0.84766769   -6.5771277    1.4273122 0.0090795935   0.01282364            6 
   13200   0.79878044   -6.5304375    1.4405741 0.0090945331  0.012804923            5 
   13300   0.84722566   -6.5155552    1.4538187 0.0091091397   0.01278576            3 
   13400   0.85031106   -6.5218714    1.4619711 0.0090918594  0.012766238            3 
   13500   0.84718827   -6.5175307    1.4791813 0.0091307482  0.012749149            9 
   13600   0.85004442   -6.4894462    1.4778833 0.0090556573  0.012727952            5 
   13700   0.84904433   -6.5568996    1.4819554 0.0090143269  0.012698953            3 
   13800   0.86661824   -6.5347525    1.5247746 0.0092075756  0.012677752            4 
   13900   0.84846716    -6.557761    1.5621558 0.0093654423  0.012670798            2 
   14000    0.8539762   -6.5192115    1.5780738 0.0093932959  0.012668092            4 
   14100   0.89490855   -6.4605588    1.5939452 0.0094204795  0.012672366            5 
   14200   0.89007869   -6.5225913    1.5846994  0.009299879  0.012668961            8 
   14300   0.86289488   -6.5552873    1.5961942 0.0093018308  0.012656196           16 
   14400   0.90428738   -6.5167377     1.613916 0.0093397914  0.012644904            9 
   14500   0.86605945     -6.49193    1.6435924 0.0094459333  0.012640005            7 
   14600   0.83107665   -6.5140621    1.6588467  0.009468303  0.012637017            4 
   14700     0.874676   -6.5620485    1.6887507 0.0095734164  0.012635612           10 
   14800   0.80494744   -6.5263678    1.7195675 0.0096822493  0.012641046           12 
   14900   0.86017659   -6.5457525    1.7315243 0.0096841403  0.012649661           21 
   15000   0.81842725   -6.5982002     1.742573 0.0096809606  0.012656265           27 
   15100   0.80039906   -6.5403207    1.7482723 0.0096483013  0.012658056           11 
   15200   0.84796461    -6.558174    1.7715892   0.00971266  0.012658204            8 
   15300   0.84783723   -6.5358746    1.7683519 0.0096315458  0.012657651            4 
   15400    0.8196278   -6.5486749    1.7563645 0.0095041368  0.012646654           17 
   15500   0.82943352   -6.5403958    1.7477085 0.0093962818  0.012629529            8 
   15600   0.86276475   -6.5159955    1.7646588 0.0094265959  0.012609153           27 
   15700   0.87230624   -6.5530865    1.7829574 0.0094636804  0.012589733           23 
   15800   0.82139601   -6.5602406    1.7766769 0.0093706584  0.012568517           31 
   15900   0.84526131   -6.5205215    1.8062693 0.0094668199  0.012549078           16 
   16000   0.86476611   -6.5445021    1.8096331 0.0094251719  0.012530501           12 
   16100   0.83454478   -6.5245731    1.8323138 0.0094840258  0.012512153            9 
   16200   0.88330661   -6.5308483    1.8707034 0.0096229597  0.012500093            4 
   16300   0.83539381   -6.5434884    1.8981148  0.009704063  0.012491593            3 
   16400   0.87420441   -6.5536025     1.901161 0.0096603706  0.012482322            4 
   16500   0.85696307   -6.5547079    1.9242668 0.0097185187  0.012476784            9 
   16600   0.81764801   -6.5608631    1.9384068 0.0097309573  0.012472434            4 
   16700    0.8497241   -6.4923413    1.9690262 0.0098254797  0.012470283            6 
   16800   0.88412378   -6.5130195    1.9908753 0.0098753734  0.012473354            8 
   16900   0.84869212   -6.5397969    1.9973571 0.0098489006  0.012474266            8 
   17000    0.8858763   -6.5387625    2.0139217  0.009872165  0.012476292            6 
   17100   0.83511823   -6.5419149    2.0190451  0.009839401  0.012475082            6 
   17200   0.86924279    -6.542113     2.058765 0.0099746365  0.012476255            8 
   17300    0.8820273   -6.5368108    2.0912265  0.010073345  0.012484365            4 
   17400   0.86838422   -6.5492232    2.1052435  0.010082583  0.012494714            8 
   17500   0.86828481   -6.6328131    2.1078183   0.01003723  0.012500063            4 
   17600   0.81659377   -6.6309882    2.1203431  0.010039503  0.012502614            5 
   17700   0.81983607   -6.5800161    2.1434955  0.010091786  0.012504752            6 
   17800   0.87231344   -6.5188541    2.1337131 0.0099892933  0.012508809           13 
   17900   0.86918219   -6.5521419    2.1500665  0.010009621  0.012511203            6 
   18000   0.83931794   -6.6287498    2.1921148  0.010148679  0.012517188            6 
   18100   0.85851514   -6.5771115    2.2132208  0.010189782  0.012524916            5 
   18200   0.84889974   -6.5178899    2.2248542  0.010187061  0.012532707           10 
   18300   0.88953835   -6.5432183    2.2619494  0.010300316  0.012542418            8 
   18400   0.80768879   -6.5382624     2.247192    0.0101775   0.01255071            9 
   18500   0.83912019   -6.5484025    2.2590102  0.010175721  0.012553546            3 
   18600   0.88068557   -6.5498942    2.2909764  0.010264231  0.012558875            7 
   18700    0.8645305   -6.5610106    2.2940467  0.010223024  0.012563978            9 
   18800   0.82831455   -6.5450639    2.3080191  0.010230581  0.012567389            7 
   18900   0.87324325   -6.5223899    2.3395556  0.010315501  0.012573042            6 
   19000   0.82716944   -6.5171796    2.3704523  0.010396721  0.012581948           13 
   19100   0.85387317   -6.5643996    2.4004996  0.010473384  0.012593834            6 
   19200   0.85969026   -6.5934557    2.4067292  0.010445873  0.012604627           20 
   19300   0.86082571   -6.6201222     2.420115  0.010449546  0.012614397           10 
   19400   0.86999836   -6.5369858    2.4220258  0.010403891  0.012622691            9 
   19500   0.86634633   -6.5442539    2.4473742  0.010458864  0.012631428           10 
   19600   0.87869005   -6.5299392    2.4554336  0.010439768   0.01264158            9 
   19700   0.89631071   -6.5075477    2.4583312  0.010399032  0.012648481            5 
   19800   0.88245973   -6.5844379    2.4620761  0.010362273  0.012651969            5 
   19900   0.89748027   -6.6059653    2.4677395  0.010333917  0.012652857           10 
   20000   0.83810531   -6.5121267     2.481139  0.010338079  0.012652809            3 
   20100   0.88217848   -6.5483162    2.5272768   0.01047793  0.012654326            4 
   20200   0.85837604   -6.5639601     2.557918  0.010552467  0.012661879           11 
   20300   0.85167061   -6.4868212    2.5662036  0.010534497  0.012668964            7 
   20400   0.82458572   -6.5126968    2.5723369  0.010507912  0.012672045            9 
   20500   0.85485297   -6.5221155    2.5819854  0.010495875  0.012674759            3 
   20600   0.87947977   -6.6053405    2.6065294  0.010544213  0.012678236           12 
   20700   0.81800056    -6.592095    2.6294825  0.010585678  0.012681051            5 
   20800   0.84120336   -6.5925746    2.6545095  0.010635054  0.012687393            6 
   20900   0.84266329   -6.5872831    2.6890657  0.010721952  0.012697314           15 
   21000    0.8720504   -6.5908331    2.7280559  0.010825618  0.012710732           15 
   21100   0.83294535   -6.5693312    2.7529677    0.0108727  0.012724934            3 
   21200   0.88096186   -6.5906756    2.7401566  0.010771055  0.012737962            3 
   21300   0.83468539   -6.5914298    2.7455815  0.010741711  0.012746578           13 
   21400   0.85762804    -6.591439    2.7522351  0.010717426  0.012752512            6 
   21500   0.82556504   -6.5131554    2.7968448  0.010840484  0.012759708            2 
   21600   0.82760878   -6.4718265    2.8004009  0.010804015  0.012768785            3 
   21700   0.85932288   -6.5814909    2.7868389  0.010702146  0.012774974            4 
   21800   0.81600853   -6.5804606     2.812971  0.010752947  0.012778863            8 
   21900   0.87278035   -6.5474601    2.8388369  0.010802271  0.012785846            4 
   22000   0.86110526   -6.5118699     2.837045  0.010746382  0.012792018           10 
   22100   0.86661644   -6.5726433    2.8179795  0.010625865  0.012794287            9 
   22200   0.87827303   -6.5695736    2.8320518  0.010630825  0.012794296            5 
   22300   0.87230585   -6.5434576    2.8572829   0.01067744  0.012794684            4 
   22400   0.87109643   -6.5570645    2.8960239  0.010773898  0.012797081            2 
   22500   0.83171364   -6.5449153    2.9106696  0.010780257  0.012800223            3 
   22600   0.84469104   -6.5880339     2.926021  0.010789163  0.012802886            5 
   22700   0.87068122   -6.5726818     2.963183  0.010878058  0.012806907           10 
   22800   0.83647507   -6.4976369    2.9877211  0.010920033   0.01281365            4 
   22900   0.82609253    -6.585243    3.0014659  0.010922365  0.012819464            5 
   23000   0.85887819   -6.5744358    3.0236683   0.01095532  0.012826613            3 
   23100   0.87275335   -6.5680536    3.0582911  0.011032796  0.012834825            3 
   23200   0.82793931   -6.6015572    3.0847741  0.011080366  0.012843785            1 
   23300   0.80536888    -6.536524    3.1218676  0.011165478  0.012854981            9 
   23400   0.84231683   -6.5442405    3.1164523  0.011098477  0.012865043            6 
   23500   0.83963879   -6.5466575    3.1315386  0.011104747  0.012874681            4 
   23600   0.80544894   -6.5877777    3.1189559  0.011013262  0.012881957            3 
   23700   0.86213678   -6.5865494    3.1655283  0.011130549  0.012891252            4 
   23800   0.84124389   -6.5822823    3.1805784  0.011136479  0.012900524            7 
   23900   0.84267886   -6.6298807     3.174107  0.011067319  0.012907566            4 
   24000   0.88612578   -6.6157496     3.162874  0.010982201  0.012911158            4 
   24100   0.86184509   -6.5153584    3.1793641  0.010993652  0.012914313            1 
   24200   0.83072185   -6.4947459    3.1745727  0.010931724  0.012916625            2 
   24300   0.83814784   -6.5507813    3.1685618  0.010866124  0.012915919            4 
   24400   0.88176843   -6.5200958    3.2210521  0.011000861  0.012916072            4 
   24500   0.85167918   -6.5697361    3.2337023  0.010998987  0.012918016            4 
   24600   0.84107874   -6.5626414    3.2641199  0.011057316  0.012920263            3 
   24700   0.84909337   -6.5163732    3.2721258  0.011039561  0.012923602            3 
   24800   0.88631226   -6.5946372    3.2484126  0.010915365  0.012924674            7 
   24900   0.88008656   -6.6292006    3.2513712  0.010881429  0.012922795            4 
   25000   0.85423344   -6.5268843    3.2807791   0.01093593   0.01292133            6 
   25100   0.84465548   -6.5442038    3.3172914  0.011013583  0.012921534            5 
   25200   0.86467115   -6.5545582    3.3296883  0.011010874  0.012923058            5 
   25300   0.86419526   -6.5098921    3.3488016  0.011030308   0.01292478            5 
   25400   0.84867238   -6.5504598    3.3332993  0.010936021  0.012923818            5 
   25500   0.85274033   -6.5664478    3.3618456  0.010986423  0.012922244            4 
   25600   0.86523376   -6.5407833    3.3841524  0.011016121  0.012921799            1 
   25700   0.83580005   -6.5776723     3.401145  0.011028356  0.012922142            4 
   25800   0.83515071   -6.5809394    3.4000111  0.010981948  0.012920859            1 
   25900   0.85450891   -6.5432058    3.3904419  0.010908758  0.012916506            5 
   26000   0.84321669   -6.5985357    3.4167166  0.010951015  0.012912651            1 
   26100   0.84041864   -6.6275934    3.4660804  0.011066668  0.012909957            9 
   26200   0.84472409   -6.5345935    3.4954764  0.011117927   0.01291097            5 
   26300   0.83057095   -6.5158706    3.4968271  0.011079934  0.012911746            8 
   26400   0.84498114   -6.5349449     3.485466  0.011002102  0.012910463           16 
   26500   0.86694793    -6.495443     3.504676  0.011020993  0.012909574            7 
   26600   0.85266595   -6.4695617    3.5266525   0.01104841  0.012908763            6 
   26700    0.8705856   -6.5723259    3.5412184  0.011052492  0.012908614            6 
   26800   0.79514147    -6.573976    3.5614729  0.011074232  0.012907942            6 
   26900   0.86913472   -6.6099862    3.5854113  0.011107222  0.012906146            7 
   27000   0.85897548   -6.5771166    3.5947602  0.011094939  0.012905085            6 
   27100   0.84344923   -6.6026003    3.5969738  0.011060805  0.012903583            4 
   27200   0.84452068   -6.5298422    3.6370456  0.011142909  0.012902638            5 
   27300   0.85131489   -6.4863885    3.6396114  0.011109925  0.012902817            8 
   27400   0.85227791   -6.5759249    3.6302615  0.011040941  0.012901525            4 
   27500   0.87054632   -6.5563049    3.6575889  0.011083603   0.01290069            5 
   27600   0.85705118   -6.5710259    3.6790011  0.011108095  0.012899189            8 
   27700   0.87482861    -6.499031    3.6528548  0.010989334  0.012896903            6 
   27800    0.9134542   -6.4886881    3.6355229   0.01089785  0.012892157            4 
   27900   0.85729781   -6.5229621    3.6746577   0.01097568  0.012886572            6 
   28000   0.82910258   -6.5529111    3.7129051  0.011050313  0.012881846            3 
   28100   0.87920542   -6.5373363    3.7281403  0.011056169  0.012878506            2 
   28200     0.860789   -6.5515979    3.7433425  0.011061887  0.012875825            2 
   28300   0.79638709   -6.5394459    3.7217371  0.010959179  0.012870235            2 
   28400   0.82298143   -6.5515005    3.7767719  0.011082077  0.012864585            2 
   28500   0.84997137   -6.5154101      3.79208  0.011087953  0.012860827            4 
   28600   0.85770105   -6.5357239    3.7592039  0.010953391  0.012855178            2 
   28700   0.88346594   -6.6110928    3.7405295  0.010861003  0.012847717            3 
   28800   0.87717107   -6.5331473    3.7519706  0.010856396  0.012838947            2 
   28900   0.86428131   -6.5646751    3.7626212  0.010849542  0.012830192            3 
   29000   0.83731212   -6.5589096    3.7899239  0.010890586   0.01282133            4 
   29100    0.8458901   -6.5587614    3.8411806  0.010999944  0.012814713            4 
   29200   0.88583958   -6.5511696    3.8416074  0.010963491   0.01280884            2 
   29300   0.86373232   -6.5475026    3.8599486  0.010978238  0.012802002            3 
   29400   0.82472053   -6.5307977    3.8341996  0.010867912  0.012793216            4 
   29500   0.80260236   -6.5395697    3.8440657  0.010858942  0.012782911            4 
   29600   0.83241416    -6.542536    3.8857485  0.010939607  0.012774227            2 
   29700   0.80918077   -6.5553778    3.9187707  0.010995428  0.012767543            3 
   29800   0.84647778   -6.5790593    3.9462739  0.011035441  0.012762616            2 
   29900   0.85055855   -6.5768777    3.9501745  0.011009405  0.012757812            5 
   30000   0.85878311    -6.564392    3.9144631  0.010873508  0.012750819            3 
   30100   0.87024607   -6.6505509    3.9369665  0.010899686    0.0127427            4 
   30200   0.86459467   -6.5448467    3.9754894  0.010969893  0.012735176            7 
   30300   0.83055162   -6.6215789    3.9896253  0.010972567  0.012728394            4 
   30400   0.85910136   -6.6182296    3.9994802  0.010963487  0.012721236            6 
   30500   0.86746572   -6.5289529    4.0031594  0.010937594  0.012714029           10 
   30600   0.84797838   -6.5716308    3.9643734  0.010796224  0.012704803            8 
   30700   0.84536634   -6.5746339    3.9650834  0.010762984  0.012692989            6 
   30800   0.85394382   -6.6002529    3.9703217  0.010742212  0.012681966            7 
   30900   0.91008709   -6.5863741    3.9938481  0.010770896  0.012670942           13 
   31000   0.85959476   -6.5786608    4.0276903  0.010827124  0.012661673            8 
   31100   0.84479176   -6.5354003    4.0571893  0.010871354    0.0126535            7 
   31200   0.88646848   -6.5384799     4.083508  0.010906805  0.012646895            8 
   31300   0.88215297   -6.6033535    4.0965566    0.0109067  0.012640148           18 
   31400   0.81184532   -6.5754239     4.080603  0.010829626   0.01263167            8 
   31500   0.85256902   -6.5858625    4.1257173  0.010914596  0.012623454           10 
   31600   0.84746162   -6.5546399    4.1178203  0.010859231  0.012615608            7 
   31700   0.87454479   -6.5519986    4.1319495  0.010862117  0.012607035           11 
   31800   0.89203938   -6.5410195    4.1433761  0.010857904  0.012599269           12 
   31900   0.84557145   -6.5919056    4.1265643  0.010779948  0.012589862            9 
   32000   0.84412967   -6.5840507    4.1619144  0.010838319  0.012580735           10 
   32100   0.84276329   -6.5309362     4.184786   0.01086393  0.012572435           12 
   32200   0.83625001   -6.5376076    4.2325151  0.010953714  0.012565597            6 
   32300   0.85606068   -6.5392769    4.2602193  0.010991278  0.012559761            8 
   32400   0.81967644    -6.559966    4.2719328  0.010987481  0.012554612           11 
   32500    0.8358071   -6.5976294    4.2536813  0.010906875  0.012548186           27 
   32600   0.85760584   -6.5851799    4.2918814  0.010971067  0.012541456           22 
   32700   0.86016197   -6.5088588    4.3108976  0.010985978  0.012535648           17 
   32800   0.84216798   -6.5280704    4.2885972  0.010895826  0.012528608           11 
   32900   0.85840747   -6.5736913    4.2782094  0.010836396  0.012519796           24 
   33000   0.82672288   -6.5659259    4.2976416   0.01085263  0.012511798           15 
   33100    0.9101704   -6.6255295    4.2901856  0.010801071  0.012502812           12 
   33200   0.88520612    -6.533532    4.3035878  0.010802178  0.012494765           13 
   33300   0.86745831   -6.5588748    4.3145293   0.01079712  0.012486943           13 
   33400   0.86098484   -6.5954593    4.3126051  0.010759993   0.01247761           19 
   33500   0.88080359   -6.5424889      4.34266  0.010802637   0.01246819           14 
   33600   0.88515427   -6.6302228    4.3445357  0.010775138  0.012458823           15 
   33700   0.85921577   -6.6117031    4.3545085  0.010767825  0.012448892            8 
   33800   0.84060025   -6.5535002    4.4241079  0.010907564  0.012440514           10 
   33900   0.83787756   -6.5242838    4.4573914  0.010957206  0.012434245           11 
   34000   0.82864087   -6.5510197    4.4463143  0.010897829  0.012428922            8 
   34100   0.83448844   -6.5724836    4.4659007  0.010913736  0.012422694           20 
   34200    0.8412422   -6.5459262    4.5019875  0.010969755   0.01241699           32 
   34300   0.88117565   -6.5679155    4.5199169  0.010981333  0.012411476           16 
   34400   0.83035838   -6.5351896    4.5260377  0.010964239  0.012406636           32 
   34500   0.84961311   -6.5795296    4.5486302  0.010987029  0.012401963           30 
   34600   0.86994729   -6.5583652    4.5359656  0.010924772  0.012397152           11 
   34700   0.84487843   -6.5035121    4.5192999  0.010853266  0.012390834           12 
   34800   0.82998339   -6.5349623      4.52097  0.010826077  0.012383611            7 
   34900   0.88568946   -6.5588482     4.539435  0.010839147  0.012376309            3 
   35000   0.86927649    -6.529656    4.5509869  0.010835683  0.012368831            4 
   35100   0.81575467   -6.5539563    4.6089071  0.010942324  0.012362002            6 
   35200   0.87134299    -6.553622    4.6304296  0.010962191  0.012356692            9 
   35300   0.83884833   -6.5483575    4.6254594  0.010919404  0.012350943            8 
   35400   0.84189708   -6.5600587    4.6329086  0.010906094    0.0123451           20 
   35500   0.85221129    -6.535813    4.6618385  0.010943283  0.012339418           29 
   35600   0.81136189   -6.5814689    4.6652587  0.010920549  0.012333662           44 
   35700   0.86635539   -6.6008637    4.6586969  0.010874642  0.012326989           23 
   35800   0.84218051   -6.5835065    4.7036698  0.010948952  0.012321513           35 
   35900   0.84118098   -6.6240093    4.7148197  0.010944335  0.012316642            8 
   36000   0.81531784   -6.5389908    4.7688773  0.011039068  0.012312614            9 
   36100    0.8396403   -6.5598058    4.7847411  0.011045109  0.012309225           19 
   36200   0.82977757   -6.5721079    4.8130091  0.011079671  0.012306552            9 
   36300    0.8531355   -6.5236252    4.8610018  0.011159324  0.012304374           17 
   36400   0.83408647   -6.5395485     4.859844  0.011126016   0.01230352           20 
   36500   0.84317632   -6.6585122    4.8682516  0.011114729  0.012301384           20 
   36600    0.8819595   -6.5759299    4.8555534  0.011055449  0.012298043           31 
   36700   0.86648483   -6.5338711    4.8846569   0.01109141  0.012295908           12 
   36800   0.82968022   -6.5618346     4.898954  0.011093646  0.012293401           16 
   36900   0.84724793   -6.5804816    4.9283967  0.011130074   0.01229199            9 
   37000   0.87218691   -6.5036513    4.9303096  0.011104301   0.01229043           16 
   37100   0.87717255    -6.545889    4.8987058  0.011003382  0.012287389            9 
   37200   0.85219194   -6.5810607    4.9365533  0.011058587  0.012284091           13 
   37300   0.82603556   -6.5413189    4.9391645  0.011034773  0.012281075           19 
   37400   0.81442427   -6.4818736    4.9854396  0.011108377  0.012278181           20 
   37500   0.79648273   -6.5810715    5.0279108  0.011173135    0.0122766           45 
   37600   0.84776403   -6.6073086    5.0739134  0.011245375  0.012275597           51 
   37700   0.83149419   -6.5986721    5.0988406  0.011270647  0.012275389           49 
   37800   0.82609152   -6.5713484    5.0703132  0.011177939  0.012274891           44 
   37900   0.86064033   -6.5804035    5.0545578  0.011113803  0.012273267           22 
   38000   0.81000052     -6.58257    5.0566628  0.011089173   0.01227063           17 
   38100   0.80881889   -6.5559641    5.1073322  0.011170893  0.012268639           17 
   38200   0.84153687   -6.5825433    5.1416833  0.011216586  0.012267547           29 
   38300   0.82701036   -6.5751177    5.1696702  0.011248194  0.012266958           10 
   38400   0.85329441   -6.5322537    5.2045302  0.011294553  0.012267517           15 
   38500   0.85235682    -6.522892    5.2276857  0.011315337  0.012268945            6 
   38600   0.85704743   -6.5877347    5.2367974  0.011305694  0.012270027            4 
   38700   0.82505516   -6.5990804    5.2665218  0.011340486   0.01227163           14 
   38800   0.83692712   -6.5453949    5.2729758   0.01132512  0.012273164           14 
   38900   0.89103976    -6.601086    5.2503312  0.011247496  0.012274161           19 
   39000   0.80140649   -6.5523597    5.2186216  0.011150901  0.012273366           14 
   39100   0.85615715   -6.5692491    5.2361876   0.01115982  0.012271776           24 
   39200   0.87158114   -6.5633144    5.2372428  0.011133594  0.012269816           29 
   39300   0.88055646   -6.5820376    5.2453734  0.011122505  0.012267573            9 
   39400   0.83394567   -6.5842334    5.2396691   0.01108221  0.012264857           18 
   39500   0.81801684   -6.5830154    5.2906522  0.011161713  0.012262233           19 
   39600   0.83282928   -6.6026757    5.3212143  0.011197841  0.012259857           32 
   39700   0.84977675   -6.5933507    5.3097133  0.011145494  0.012257186            6 
   39800   0.83690042   -6.5789991    5.2943302  0.011085281  0.012253349            6 
   39900    0.8451777    -6.575431    5.3267673  0.011125245  0.012250688            6 
   40000   0.84322262   -6.5693338    5.3453579  0.011136162  0.012247754            2 
   40100   0.86357472   -6.5860038     5.366142  0.011151583  0.012245377            9 
   40200   0.89220342   -6.6017465    5.3455744  0.011081207  0.012242778            4 
   40300   0.81181529   -6.5711027    5.3826218  0.011130318  0.012239912            4 
   40400   0.86691178   -6.5961387    5.4209931  0.011181916  0.012237719            2 
   40500   0.84570858   -6.5652999     5.428339  0.011169422  0.012235988            3 
   40600     0.841498   -6.6090533    5.4518141  0.011190095  0.012234495            8 
   40700   0.81500683   -6.5776611    5.4225895  0.011102763  0.012231898            4 
   40800     0.869792   -6.5554756     5.453978  0.011139661   0.01222939            2 
   40900   0.91415388   -6.5220926    5.4859003  0.011177466  0.012227879            5 
   41000   0.88058704   -6.5154813    5.5063135  0.011191694  0.012227056            5 
   41100   0.83755602   -6.5299151     5.507745  0.011167366    0.0122253            9 
   41200   0.86715457   -6.5402726    5.5559411  0.011237745  0.012224317            3 
   41300   0.81868657   -6.5344669    5.5807366  0.011260566  0.012223629            4 
   41400   0.85831541   -6.5386533    5.5796578  0.011231195  0.012222795            4 
   41500   0.82403255   -6.5307997    5.5700313  0.011184802   0.01222161            3 
   41600   0.84301076   -6.5488966    5.6080026  0.011233979  0.012220093            5 
   41700   0.83553375   -6.4951062    5.6004321   0.01119191  0.012218684            2 
   41800   0.88372283   -6.5364717    5.6448326  0.011253653  0.012218108            7 
   41900   0.84638257   -6.5917621    5.6561334  0.011249271  0.012218004            7 
   42000   0.87787791   -6.5815079    5.6364122  0.011183357  0.012216876            4 
   42100   0.84947422   -6.5400609    5.6422426  0.011168334  0.012215419            9 
   42200   0.88534133   -6.5262268    5.6462977  0.011149877  0.012213077            3 
   42300   0.82932714    -6.500682    5.6085454  0.011049144  0.012209521            2 
   42400   0.84387626   -6.5676988     5.622115  0.011049754  0.012205063            5 
   42500   0.83772272   -6.5173418    5.6262389  0.011031841  0.012200705           13 
   42600   0.86773356    -6.496844    5.6429529   0.01103864  0.012196534            4 
   42700   0.83705643   -6.5691635    5.6737617  0.011072915  0.012192314            9 
   42800   0.82441386   -6.5389222    5.6956053  0.011089574  0.012188222            6 
   42900   0.87894011   -6.5604375    5.6355279  0.010947024   0.01218334            3 
   43000   0.84494921   -6.5622187    5.6621745  0.010973206  0.012177183            6 
   43100   0.84812228    -6.563107    5.7096511  0.011039542  0.012172352            8 
   43200   0.86937328   -6.5174213    5.7391781  0.011070945  0.012168374            3 
   43300   0.85213355   -6.4795898     5.712601  0.010994228  0.012164481            7 
   43400   0.85453428   -6.5445256    5.6999892   0.01094468  0.012159617            2 
   43500   0.81267169   -6.5505125    5.6988877  0.010917409  0.012153594            2 
   43600   0.84032168   -6.5627069    5.7261207   0.01094442   0.01214715            2 
   43700   0.85807462    -6.518067    5.7635064  0.010990668  0.012141015            2 
   43800    0.8854491   -6.5012155    5.7878685  0.011011926  0.012136265            2 
   43900   0.84813314   -6.5463529    5.7611666  0.010936155  0.012130935            3 
   44000   0.84061727   -6.5451537    5.7666088  0.010921607  0.012125419            3 
   44100   0.88605255   -6.5122406    5.8062407  0.010971732  0.012120339            4 
   44200   0.86452853   -6.5523737    5.8337188  0.010998716  0.012115638            5 
   44300   0.84214978   -6.5277971    5.8502055  0.011004901  0.012111388            2 
   44400   0.86418017   -6.5188851    5.8443782  0.010969178  0.012107152            7 
   44500   0.84910051   -6.5061987    5.8570303  0.010968221  0.012102341           10 
   44600   0.85855467   -6.5974655    5.8469661  0.010924824  0.012096958           12 
   44700   0.84666436      -6.5431    5.8762099  0.010954903  0.012091966            4 
   44800   0.86039532   -6.5350514    5.8871625  0.010950823  0.012087268            5 
   44900   0.86712466   -6.5731009     5.886681   0.01092554  0.012082049           12 
   45000   0.83535692   -6.5807343    5.9103159  0.010945029  0.012076717           12 
   45100   0.85198486   -6.5738192    5.9245655  0.010947091  0.012071626            6 
   45200   0.85167776   -6.5385467    5.9948743  0.011052497  0.012067485            8 
   45300    0.8626111   -6.4662461    5.9917249  0.011022305  0.012064059            9 
   45400   0.85485577   -6.5430976    5.9990389  0.011011452  0.012060411            4 
   45500   0.83584269   -6.5336029    5.9880254  0.010967079  0.012055785            7 
   45600   0.84855963   -6.5095812    5.9992451  0.010963533  0.012050729            3 
   45700    0.8859179   -6.5338166    6.0421672   0.01101781  0.012046607            8 
   45800    0.8347056    -6.497423      6.05266  0.011012846  0.012042988            3 
   45900   0.82585687   -6.5663455    6.0509667  0.010985778  0.012038774            4 
   46000   0.86279933   -6.5956928    6.1063843   0.01106229  0.012034974            3 
   46100   0.86877984   -6.5375087     6.104726  0.011035296  0.012031711            3 
   46200   0.84340031   -6.5949202    6.1459117  0.011085699  0.012028872            3 
   46300   0.83496034   -6.5851757     6.213613  0.011183609  0.012026783            7 
   46400   0.83292734   -6.5384935     6.226079  0.011181895  0.012025102            8 
   46500   0.83000067   -6.4601064    6.2412381  0.011185014   0.01202382            6 
   46600    0.8875835   -6.5579716    6.2555487  0.011186603  0.012023153            8 
   46700   0.87031441    -6.571899    6.2385723  0.011132356  0.012021709            3 
   46800   0.81312981   -6.5595341    6.2290063  0.011091535  0.012019816            2 
   46900   0.84571233   -6.5031435    6.2531263  0.011110743  0.012017203            9 
   47000   0.83813163   -6.5295165     6.294722  0.011160855  0.012015451           15 
   47100   0.82482436   -6.6071551    6.3121618  0.011168014   0.01201342           31 
   47200   0.83827491   -6.5556237    6.3000048   0.01112289  0.012011258           11 
   47300   0.84494106    -6.467964    6.3554864  0.011197122  0.012009897           19 
   47400   0.84826881    -6.545684    6.3457454  0.011156374  0.012009218           25 
   47500   0.86224092   -6.5480915    6.3376949  0.011118763  0.012007935            5 
   47600   0.82203684   -6.5430494    6.3570517  0.011129292  0.012006259            5 
   47700   0.82213526   -6.5216795    6.4054453  0.011190505  0.012004773            5 
   47800    0.8513008   -6.5195957    6.4582323  0.011259122  0.012003977            8 
   47900   0.86620077   -6.5558778    6.4651814  0.011247706  0.012003952            4 
   48000   0.85005402   -6.5623522    6.4734742   0.01123867  0.012003929           19 
   48100   0.87174655   -6.5236671    6.5049345   0.01126981  0.012003837           17 
   48200   0.84159873   -6.5260204    6.5397636  0.011306645  0.012003703           13 
   48300   0.83318706   -6.5985321    6.5186815  0.011246862  0.012003179           19 
   48400   0.81883551   -6.5588162    6.5129035  0.011213677  0.012001823           18 
   48500   0.84040171   -6.5641569    6.5630376  0.011276697  0.012000806           15 
   48600   0.85840999   -6.5691376    6.5583076  0.011245383  0.011999913           14 
   48700   0.79822031   -6.5628887    6.5472221  0.011203323   0.01199883           14 
   48800   0.84086488   -6.5743943    6.5612825  0.011204376  0.011997525            7 
   48900   0.83342429   -6.5507627    6.5935511  0.011236454  0.011996629           17 
   49000   0.81836729   -6.6266121    6.6064113  0.011235393  0.011995623           20 
   49100   0.85676646   -6.5752602     6.597027  0.011196583  0.011994721           22 
   49200    0.8173584   -6.4773687    6.6212389  0.011214835  0.011993711           15 
   49300   0.87714596    -6.527826    6.6578133   0.01125391  0.011993152           18 
   49400   0.81277235   -6.4902526    6.6427794  0.011205768  0.011992119           15 
   49500   0.83998078   -6.5373379    6.7015236  0.011282026  0.011991185            9 
   49600   0.91479569   -6.5744175     6.680668   0.01122424  0.011990701            6 
   49700   0.86071759   -6.5553406    6.6404454  0.011134214   0.01198939           11 
   49800   0.84044625    -6.541555    6.6260477  0.011087764  0.011987275            7 
   49900   0.87257883   -6.5198871    6.6534543  0.011111313  0.011985282           19 
   50000   0.87063769   -6.5775624    6.6603517  0.011100586   0.01198283            8 
   50100   0.83861147   -6.5600192     6.667396  0.011090146  0.011980058            5 
   50200   0.84888869   -6.6299459    6.6838198  0.011095318  0.011977266            7 
   50300   0.83834765   -6.6406962    6.6431278  0.011005845  0.011973752            6 
   50400   0.84341698   -6.5381283    6.7029247  0.011082878  0.011970169            6 
   50500   0.86991219   -6.5810707    6.7031163  0.011061248  0.011967389           11 
   50600   0.86200475   -6.5585758    6.6993812  0.011033236  0.011964219            4 
   50700   0.90393314    -6.546368    6.7133577  0.011034447   0.01196137            4 
   50800   0.83750614   -6.5552277    6.7176575  0.011019779  0.011958325           13 
   50900   0.86734668   -6.5455637     6.750763   0.01105233  0.011955423            5 
   51000   0.82290905   -6.5401401     6.791295  0.011096887  0.011952854            7 
   51100    0.8232718   -6.5079324    6.7736813  0.011046447  0.011949694            6 
   51200   0.86573526   -6.5683363    6.7305367  0.010954649  0.011945864           11 
   51300   0.86721002   -6.5900935    6.7360396  0.010942235  0.011941302           13 
   51400   0.84654329   -6.6174329    6.7699511  0.010975926  0.011936959           31 
   51500   0.83271897    -6.577231    6.7922762  0.010990738  0.011932962           11 
   51600   0.86119989   -6.5645601    6.7778807   0.01094619  0.011928951            6 
   51700   0.83458221    -6.581027    6.8075311   0.01097281  0.011924775            7 
   51800   0.84549065    -6.488178    6.7777302  0.010903684  0.011920564            4 
   51900   0.83729628   -6.5073314    6.7926219  0.010906586  0.011916313            2 
   52000   0.84051704   -6.6070734    6.7982811  0.010894681  0.011911858           12 
   52100   0.81984771   -6.5457622    6.8558845  0.010965906  0.011907513            3 
   52200   0.82621211   -6.5562725      6.89492  0.011007216  0.011903871           15 
   52300   0.84924709   -6.5490585    6.9173472  0.011021904  0.011900188           13 
   52400   0.81844878   -6.5812132    6.8822686  0.010945084   0.01189622            6 
   52500   0.86637147   -6.5564488    6.9316663  0.011002645  0.011892248           20 
   52600   0.85050411   -6.5758877    6.9432761   0.01100012  0.011888805           20 
   52700   0.84112496   -6.6002457    6.9406301  0.010975063   0.01188537           32 
   52800   0.85630478    -6.546443    6.9885998  0.011029987  0.011881622           22 
   52900   0.81292226   -6.5531433    7.0742493   0.01114406  0.011879115           21 
   53000   0.82119447   -6.5465464    7.0676487  0.011112655  0.011876856           19 
   53100   0.85596795   -6.5050367    7.0699041  0.011095267    0.0118749           11 
   53200   0.85048218   -6.5066177    7.0725205  0.011078509  0.011872675            7 
   53300   0.88559188   -6.5167869    7.0904124  0.011085698  0.011870298           15 
   53400   0.84369054   -6.5303473    7.0656319  0.011026267  0.011867411           33 
   53500   0.82455167   -6.5680163    7.0941411  0.011050064  0.011864409           24 
   53600   0.81432845   -6.4804818    7.1124163  0.011057861  0.011861655           10 
   53700   0.86221436   -6.5272513    7.1085952  0.011031339  0.011858713           17 
   53800   0.85183373   -6.6040736    7.1100742  0.011013126  0.011855453           10 
   53900   0.86309321   -6.5821464    7.1190764  0.011006612  0.011852195           10 
   54000   0.84114994   -6.5451845    7.1608198  0.011050648  0.011849288            6 
   54100   0.89190224   -6.5442409    7.2161404  0.011115435  0.011846951           20 
   54200   0.82241901   -6.5068146    7.2438829  0.011137581  0.011845181            7 
   54300   0.83127274   -6.5377391    7.2302796  0.011096193   0.01184313            8 
   54400   0.86764374   -6.5347197    7.2430075  0.011095293  0.011840997            7 
   54500   0.83214802   -6.5647112    7.2461164  0.011079689  0.011838828            8 
   54600   0.82933582   -6.4947357     7.251618  0.011067793  0.011836465            8 
   54700   0.89395632   -6.5426266    7.2939502  0.011112051  0.011834383            8 
   54800    0.8467094   -6.5601519    7.3009656  0.011102442  0.011832538            3 
   54900   0.84670043   -6.5212077    7.3029248  0.011085192  0.011830424            5 
   55000   0.81693868   -6.5148308    7.3056584  0.011069179  0.011827765            6 
   55100   0.89324079   -6.5435465     7.306237  0.011049965  0.011825604            5 
   55200   0.83729948   -6.4898599    7.3212313  0.011052583  0.011823334            5 
   55300    0.8515715   -6.5407399    7.3692371  0.011104938  0.011821056            8 
   55400   0.86540702   -6.5757288    7.3751315   0.01109376  0.011819324            5 
   55500    0.8734835   -6.4922156    7.3860484  0.011090163   0.01181755            3 
   55600   0.84722769   -6.5477415    7.4391201   0.01114976  0.011815919            5 
   55700   0.85301947   -6.5476059    7.3863028  0.011050722  0.011814088            4 
   55800   0.82694643   -6.5549148    7.3674484   0.01100276  0.011811496            6 
   55900   0.84780589   -6.5147283    7.4440611  0.011097288  0.011809437            3 
   56000   0.83293901   -6.5263623    7.5006802  0.011161726  0.011807976            8 
   56100   0.86707773   -6.5863001    7.5593144  0.011228928  0.011807215            6 
   56200   0.79889528   -6.5773877    7.5533237  0.011200065   0.01180642            3 
   56300   0.86695672   -6.6019657    7.5671778  0.011200678   0.01180526            6 
   56400   0.83579525   -6.5911758    7.5989352  0.011227741  0.011804558            8 
   56500   0.84280484   -6.5372837    7.6581915  0.011295268  0.011804349            7 
   56600   0.85883229   -6.5389856    7.6636434  0.011283338  0.011804913            3 
   56700    0.8439186   -6.5633597    7.6095586  0.011183948   0.01180447            7 
   56800   0.83660831   -6.5438257    7.6355175  0.011202344  0.011803586            5 
   56900    0.8890937   -6.5507628    7.6414716  0.011191376  0.011803176            5 
   57000   0.85619694   -6.5116364    7.6112054  0.011127493  0.011802247            5 
   57100   0.82950254   -6.5714406    7.6134286   0.01111125  0.011801273            4 
   57200   0.85456638   -6.5494195     7.675671  0.011182504  0.011800481            7 
   57300   0.87183123   -6.5573177    7.6914182   0.01118589  0.011800042            4 
   57400   0.84294679    -6.620307    7.6804198  0.011150435  0.011799117            2 
   57500   0.87955841    -6.578756    7.6718873  0.011118677  0.011797957            2 
   57600   0.87072301   -6.5633169    7.6651041   0.01108956  0.011796407            5 
   57700   0.89840542   -6.5685604    7.7214312  0.011151691  0.011795043            5 
   57800   0.84234808   -6.5368073    7.7173795  0.011126556  0.011793712            4 
   57900   0.83553678   -6.5005241    7.7373741  0.011136117  0.011792028            3 
   58000   0.85672774   -6.4996852    7.7878875  0.011189493  0.011791049            3 
   58100   0.83789154   -6.5379587    7.7359367  0.011095721  0.011789783            2 
   58200   0.84731311   -6.5131289    7.7721855  0.011128559  0.011788312            6 
   58300    0.8704423    -6.495538    7.8363653  0.011201208  0.011787034            2 
   58400   0.82624375   -6.4968924    7.8768333  0.011239773  0.011786075           10 
   58500   0.83382039   -6.5360982    7.8648678  0.011203515  0.011784854            3 
   58600   0.82802266   -6.5810568    7.8347519   0.01114157  0.011783398            6 
   58700   0.87588264   -6.6199889    7.8460961  0.011138694   0.01178181            6 
   58800   0.82739256   -6.5347161    7.8809027   0.01116908   0.01178042            3 
   58900   0.86803049   -6.5140896    7.9498653  0.011247687  0.011780043            3 
   59000   0.85383722   -6.5280001    7.9307877  0.011201677  0.011779831            3 
   59100   0.84815354   -6.5877052    7.9353737   0.01118919  0.011779202            3 
   59200   0.87433043   -6.5322168    7.9898288  0.011246944  0.011778598            3 
   59300   0.89672203   -6.5170186    7.9899934  0.011228209  0.011778631           10 
   59400   0.84920224   -6.5161441    7.9343575  0.011131253  0.011777925            8 
   59500   0.84546201   -6.5235591    7.9244624  0.011098687  0.011776339            8 
   59600   0.90568429   -6.5311771    8.0038757  0.011191101  0.011775142            2 
   59700   0.87244352   -6.5350981    7.9761713  0.011133684  0.011774533            3 
   59800   0.84395426   -6.5505814    8.0045945  0.011154675  0.011773232            8 
   59900   0.88566161    -6.528554    8.0415317   0.01118744  0.011772459           13 
   60000   0.81864822   -6.5087637    8.0541462  0.011186314   0.01177196            7 
   60100   0.88630509   -6.5975702     8.064952  0.011182684  0.011771548           10 
   60200   0.86064367   -6.5614049    8.0776508  0.011181687  0.011771023           39 
   60300   0.88534996    -6.584476    8.1047069  0.011200535  0.011770622           15 
   60400   0.88904123   -6.5030684    8.1595457  0.011257651  0.011770422            9 
   60500   0.83020302    -6.513424    8.1437242  0.011217251  0.011770131           13 
   60600   0.82939388   -6.5793366    8.1740493  0.011240442  0.011769338           15 
   60700     0.846934   -6.5907518    8.1702207  0.011216668  0.011768458           20 
   60800   0.84990929   -6.6320379    8.1303605  0.011143586  0.011767173           20 
   60900   0.89113096    -6.571436    8.2135315  0.011239096  0.011766133           26 
   61000   0.84173222   -6.5891525    8.1972268  0.011198397  0.011765323           33 
   61100   0.84450459    -6.595505    8.2026083  0.011187409  0.011764129           22 
   61200   0.85065914   -6.5843408    8.2037362  0.011170665  0.011762814           26 
   61300   0.82311307   -6.6034833    8.2442853  0.011207566  0.011761716           28 
   61400   0.84211523   -6.6117248    8.3084277  0.011276368  0.011760863           25 
   61500   0.85631956   -6.5387731    8.3383734  0.011298609  0.011760853           35 
   61600   0.83917907   -6.5848489    8.2802023  0.011201572  0.011760583           23 
   61700     0.821891   -6.5867827    8.3002139  0.011210445  0.011759946           25 
   61800    0.8723228     -6.58308    8.2961245  0.011186791  0.011759139           41 
   61900   0.82426042   -6.5679406     8.368458  0.011266098  0.011758589           29 
   62000   0.86050986   -6.6029584    8.4033807  0.011294867   0.01175855           24 
   62100   0.84979212   -6.6104139    8.4037841   0.01127722  0.011758642           34 
   62200   0.85492764   -6.5552938    8.4452493  0.011314643  0.011759183           50 
   62300    0.8417497   -6.5422758    8.4856966  0.011350584  0.011759952           54 
   62400   0.90168729   -6.5757999    8.5084905  0.011362834   0.01176095           60 
   62500   0.82515206   -6.5595556    8.4995287  0.011332705  0.011762018           50 
   62600   0.87097028   -6.6069099    8.5216035  0.011343988  0.011762663           54 
   62700   0.84907869   -6.5754825    8.4938165  0.011288964  0.011763268           74 
   62800   0.82783297   -6.5849363    8.4427003  0.011203159  0.011763348           61 
   62900   0.84273258   -6.5180577    8.4895809  0.011247457  0.011763168           61 
   63000   0.85881094   -6.5230964    8.5226447  0.011273339  0.011763304           43 
   63100   0.84106932   -6.5794829    8.5730796  0.011322081  0.011763801           37 
   63200   0.84069268   -6.5783086    8.6241109  0.011371454  0.011764314           46 
   63300   0.86321092   -6.5170323    8.6133378  0.011339307  0.011765331           38 
   63400    0.8540422   -6.5139367    8.6490042  0.011368302  0.011766333           32 
   63500   0.89306273   -6.5420774    8.6893809  0.011403387  0.011767511           46 
   63600   0.85078881   -6.5620249    8.7222728  0.011428554  0.011768934           59 
   63700   0.83057932   -6.5691561    8.7065738  0.011390076  0.011770214           33 
   63800   0.82079019    -6.610089      8.69144  0.011352456  0.011771112           15 
   63900   0.85876671   -6.5875747    8.7376439  0.011394945  0.011771602           21 
   64000   0.80656472   -6.5595257    8.8024279  0.011461495  0.011772656           15 
   64100   0.83373758   -6.5809431    8.8389701  0.011491121  0.011774429            5 
   64200   0.86156174   -6.5985442    8.8293342  0.011460714  0.011776453            6 
   64300   0.88372498   -6.5569461    8.8791733  0.011507482   0.01177874            6 
   64400   0.87191369   -6.5658725    8.8722153   0.01148061  0.011781085            9 
   64500    0.8547298   -6.5939568    8.8512363  0.011435706  0.011782954            8 
   64600    0.8321422   -6.5659458    8.8374431   0.01140021  0.011784275            4 
   64700   0.90641898   -6.6071006    8.9135321  0.011480593  0.011785697            6 
   64800   0.84515075   -6.6080414    8.8658814  0.011401596  0.011787045            4 
   64900   0.86048966   -6.6119465    8.8762035  0.011397282  0.011787817            3 
   65000   0.88208532   -6.5577868    8.9534595  0.011478794  0.011789236            5 
   65100   0.85157885   -6.6116706    8.9621386  0.011472272  0.011790859            5 
   65200    0.8547921   -6.5523023    8.9493105   0.01143828  0.011792197            8 
   65300   0.82419291   -6.4722689    8.9757921  0.011454558  0.011793711            3 
   65400   0.87612221   -6.4919504    9.0430239  0.011522711  0.011795641            2 
   65500   0.84138857   -6.5501549    9.0596862  0.011526318  0.011797833            5 
   65600   0.87698118   -6.5165209    9.0135098  0.011450089  0.011799217            3 
   65700   0.83809431   -6.5008704    8.9992698  0.011414599  0.011800455            8 
   65800   0.83439459   -6.5193504    8.9951442  0.011392026  0.011801434            6 
   65900   0.87998759   -6.5060799    9.0110768  0.011394887  0.011802372           10 
   66000   0.83839583   -6.4803501    9.0531005  0.011430682  0.011803611            3 
   66100   0.85471905   -6.5628837    9.0664355  0.011430201  0.011804751            9 
   66200   0.80917705   -6.5034303    9.1440656  0.011510656  0.011806396            4 
   66300   0.88384678   -6.5709274    9.1874139   0.01154778  0.011808513            6 
   66400   0.84641306   -6.5570147     9.146522  0.011479069  0.011810186            6 
   66500    0.8227313   -6.5328455     9.169317  0.011490372  0.011811797            7 
   66600   0.87547697   -6.5431019    9.1958394  0.011506305  0.011813571            6 
   66700   0.83056896   -6.5447883    9.1772318  0.011465807  0.011815486            6 
   66800    0.8790611   -6.6148223    9.2190163  0.011500769  0.011817133            8 
   66900   0.87117457   -6.5413899    9.2673662  0.011543804  0.011819074            6 
   67000   0.83322175   -6.5599034    9.2841301  0.011547425  0.011821134            3 
   67100    0.8275268   -6.5866722    9.3417615   0.01160179  0.011823047            2 
   67200    0.8747273   -6.5455948    9.3627614  0.011610567  0.011825435            4 
   67300   0.82702893   -6.5371164    9.3885846   0.01162529  0.011827945            3 
   67400   0.83587808   -6.4989478    9.3337807  0.011540283   0.01183017            3 
   67500   0.87647738   -6.5681394    9.3189752  0.011504908  0.011832207            7 
   67600    0.8392906   -6.5709957    9.3389867  0.011512557  0.011833733            5 
   67700   0.85557017    -6.529754    9.3531704  0.011513011  0.011835641            3 
   67800   0.86379401   -6.5254283     9.394463  0.011546783  0.011837531           10 
   67900   0.84358981   -6.5600802    9.3901077  0.011524433  0.011839246            4 
   68000   0.81060977   -6.5271503    9.4541964  0.011586025  0.011840929           16 
   68100   0.86606801   -6.5341278    9.4801436  0.011600763  0.011843225            5 
   68200   0.87308444   -6.5412936    9.4892603  0.011594893  0.011845317            7 
   68300      0.82511   -6.5628595    9.4804899  0.011567215  0.011847204           11 
   68400   0.85256049   -6.5289697    9.4864377  0.011557551  0.011848876            6 
   68500   0.83784953   -6.5888352    9.4545809  0.011501923  0.011850341            4 
   68600   0.83007459   -6.5863125    9.5029244  0.011543883  0.011851421            4 
   68700   0.85334348   -6.5454997    9.4811877  0.011500713  0.011852443            5 
   68800   0.81622162   -6.5389803     9.421241  0.011411387  0.011853181            2 
   68900   0.86529254   -6.5391856    9.4230805  0.011397049  0.011853626            3 
   69000   0.86804554   -6.5780277    9.4377364  0.011398232  0.011854162            7 
   69100   0.84817351   -6.5985999    9.4532154  0.011400404  0.011854374            3 
   69200   0.88322537   -6.5567575    9.5250029  0.011470379  0.011854709            4 
   69300   0.85776678   -6.4734414    9.5553997  0.011490379  0.011855604            5 
   69400   0.85297881   -6.5407379    9.5098736  0.011419156  0.011856385           13 
   69500   0.85375028    -6.551704    9.5328497  0.011430275  0.011856657            8 
   69600     0.843589   -6.5201078     9.545493  0.011428991  0.011857237           11 
   69700   0.86263085   -6.4932469    9.5867236  0.011461889  0.011857772           11 
   69800   0.86280517   -6.5576957    9.7046234  0.011586226  0.011858922           12 
   69900    0.8335066   -6.5522562    9.6147522  0.011462508  0.011859787            3 
   70000   0.82820917    -6.487375    9.5903346  0.011417065  0.011860059            5 
   70100   0.87884488   -6.5036808    9.6236213  0.011440349  0.011860696            9 
   70200   0.85963312   -6.4674558    9.5954178  0.011390572  0.011860968            5 
   70300   0.80979373   -6.4427639    9.6106766  0.011392457  0.011860915            3 
   70400    0.8303871   -6.5327373    9.6429456  0.011414472  0.011860895            6 
   70500    0.8012315    -6.509009    9.7024424  0.011468608  0.011861057            7 
   70600   0.86270109   -6.5320192    9.7141824  0.011466221  0.011861658            5 
   70700   0.83601027   -6.5710473    9.6393936   0.01136185  0.011861437            3 
   70800   0.81442096   -6.6011594     9.731936  0.011454727  0.011861059            2 
   70900   0.85918924   -6.5636537    9.7475677  0.011456944  0.011861189            3 
   71000   0.81684729   -6.4994324    9.7766638  0.011474957  0.011861533            8 
   71100   0.84951126   -6.5390925    9.7558831  0.011434462  0.011861848            3 
   71200   0.82121113   -6.5355077    9.7127812  0.011367955  0.011861679            5 
   71300   0.89649209   -6.6069774    9.6887042  0.011323871   0.01186123           18 
   71400   0.81761377   -6.5258236    9.6095195  0.011215592   0.01186021           16 
   71500   0.88630126   -6.5259547     9.654206  0.011251988  0.011859038            7 
   71600   0.85216595   -6.5425098    9.6277129  0.011205439   0.01185768            8 
   71700    0.8398485   -6.6147703    9.6083242  0.011167276  0.011855816            5 
   71800   0.83539139   -6.5742007     9.681641  0.011236816  0.011854068            4 
   71900    0.8562905   -6.5627778    9.7110455  0.011255268  0.011852732            3 
   72000   0.81704847   -6.5798936    9.6966135  0.011222932  0.011851005            7 
   72100    0.8603547   -6.6046552    9.7354355  0.011252237  0.011849295            8 
   72200    0.8368988   -6.5254498    9.7374376  0.011238963  0.011847762            3 
   72300   0.82971357   -6.6081808    9.7298523  0.011214675  0.011846098            5 
   72400   0.82097851   -6.5312733    9.7159659  0.011183202  0.011844218            5 
   72500   0.82977486    -6.591398     9.738794  0.011194016  0.011841933            6 
   72600   0.86452634   -6.5988109    9.7799731  0.011225864  0.011839827            2 
   72700   0.79431861   -6.5815233    9.7854361  0.011216685  0.011837856            4 
   72800   0.83605873   -6.5778818    9.8212407  0.011242263  0.011836133            4 
   72900    0.8520331   -6.5481583    9.8318058  0.011238918  0.011834639            3 
   73000   0.82583245   -6.5951316    9.8239265  0.011214528  0.011833217            4 
   73100   0.85522464   -6.5606735    9.8551954  0.011234833  0.011831811            1 
   73200   0.87397321   -6.5455457    9.8626935  0.011228021  0.011830698            3 
   73300   0.83143161    -6.566248    9.8394069  0.011186229   0.01182943           11 
   73400   0.84137603   -6.5681045    9.8749368  0.011211327  0.011827801            4 
   73500   0.86171507   -6.5431539    9.8818183  0.011203875  0.011826465            5 
   73600   0.83956106   -6.5552508    9.8746349   0.01118052  0.011824688            4 
   73700    0.8467898   -6.5864386    9.8866758  0.011178964   0.01182287            2 
   73800   0.81403465   -6.5682578     9.949104  0.011234309  0.011820766            2 
   73900   0.85433216   -6.5149121    9.9814601  0.011255593  0.011819296            4 
   74000   0.82800818   -6.5589183    9.9767894  0.011235123  0.011817835            7 
   74100   0.83381144   -6.5585424    10.019499  0.011267992  0.011816163            7 
   74200   0.84868864    -6.579847    10.078787  0.011319392  0.011815042            4 
   74300   0.84348065   -6.6145763    10.018119  0.011236113  0.011813616            3 
   74400    0.8237099   -6.5885295    9.9904413   0.01119001  0.011811711            4 
   74500   0.87939907   -6.5613955    9.9746132  0.011157285  0.011809808            5 
   74600   0.84519012   -6.5756157    10.002099  0.011173033  0.011807893            3 
   74700   0.86086606   -6.5722757    9.9830538  0.011136829  0.011805835            2 
   74800   0.84985589   -6.5119865    9.9721195  0.011109759  0.011803482            3 
   74900      0.86868   -6.5433018    9.9902384  0.011115085  0.011801123            4 
   75000   0.83759946   -6.5523998    9.9505008  0.011056112  0.011798486           10 
   75100   0.78067182   -6.5834614    10.003319  0.011099999  0.011795797            4 
   75200   0.85777666   -6.5969091    10.073979  0.011163541  0.011793533            8 
   75300   0.84205781   -6.5421805    10.107885  0.011186238  0.011791437            3 
   75400   0.88002586   -6.4893547    10.130782  0.011196708  0.011789822            2 
   75500   0.85497704   -6.5029894    10.095803  0.011143271     0.011788           10 
   75600   0.86802036   -6.5604585     10.05935  0.011088348  0.011785734            4 
   75700   0.89314717    -6.500468    10.094446  0.011112336  0.011783407            2 
   75800   0.85782436   -6.5689879    10.111332   0.01111624  0.011780964            2 
   75900   0.85325637   -6.5373781    10.142035  0.011135304  0.011778794            3 
   76000   0.86556938   -6.5819914    10.184863  0.011167613  0.011776855            3 
   76100   0.86535682   -6.6065234    10.144622  0.011108872  0.011774684            5 
   76200   0.87724372   -6.5833767     10.21732  0.011173797  0.011772533            3 
   76300   0.84392105   -6.5810858    10.236743  0.011180366  0.011770802            4 
   76400   0.81463128   -6.5302652    10.246263  0.011176116  0.011769027            7 
   76500    0.8387123   -6.5094729    10.286584   0.01120543  0.011767622            5 
   76600   0.83304288   -6.5891755     10.30619  0.011212131   0.01176606            7 
   76700   0.83799271   -6.5522511    10.300277  0.011191088  0.011764296            4 
   76800   0.83402454   -6.5903637    10.263933   0.01113708  0.011762459            3 
   76900   0.86241934   -6.5911851    10.221254  0.011076348  0.011760194            7 
   77000   0.85847047   -6.5455329    10.212688  0.011052692  0.011757701            4 
   77100   0.87562585   -6.5166109    10.258248  0.011087601   0.01175519            7 
   77200   0.84129687   -6.5774051    10.290038  0.011107554  0.011752801            9 
   77300   0.86016969   -6.5766765    10.285869   0.01108869  0.011750365            7 
   77400   0.85383752   -6.5329753    10.350034  0.011143448  0.011747865            7 
   77500    0.8548651   -6.4959305    10.342516  0.011120985  0.011745627            3 
   77600   0.86276731   -6.5669903    10.337428  0.011101189  0.011743261           10 
   77700   0.81716656    -6.540073    10.300352  0.011047138  0.011740744            4 
   77800   0.87994946   -6.5280447    10.333956  0.011068934  0.011738176            3 
   77900   0.85284735   -6.5114043    10.336197  0.011057121  0.011735773            4 
   78000   0.90492161   -6.5171872    10.289208  0.010992744   0.01173298            2 
[...]
   82800   0.84147931   -6.5604521    10.862678  0.010932647   0.01159152            6 
   82900   0.81867055   -6.5928203    10.825343  0.010881929   0.01158807           13 
   83000   0.81863497   -6.5023291    10.859916   0.01090353  0.011584913            7 
   83100   0.86947976   -6.5445612    10.875329  0.010905865  0.011581921            8 
   83200   0.82845846   -6.5819567    10.931574  0.010949092  0.011579035            6 
   83300   0.82429107     -6.59609    11.030264  0.011034678  0.011576514            8 
   83400   0.85344169   -6.5670302     11.12223  0.011113339  0.011574625            2 
   83500   0.82230047   -6.5128698    11.105231  0.011083065  0.011572787            2 
   83600   0.82064188   -6.5529625    11.085205  0.011049845  0.011570901            9 
   83700    0.8201163   -6.5800017    11.018331  0.010970062  0.011568516           10 
   83800    0.8641936   -6.5901576    11.079613  0.011017912  0.011566128           14 
   83900    0.8832987   -6.5761108    11.050662  0.010976025     0.011564            8 
   84000   0.81826598    -6.567009    11.079684   0.01099175  0.011561516           11 
   84100   0.86249344   -6.5498993    11.113332  0.011012021  0.011559233            7 
   84200   0.81310975   -6.5630566    11.136588   0.01102196  0.011556978            9 
   84300   0.84115885   -6.5751721    11.221651  0.011092973  0.011555121           15 
   84400   0.85924249    -6.587415    11.248643   0.01110648  0.011553663           18 
   84500   0.80131953   -6.5675288    11.210909  0.011056123  0.011551912           13 
   84600   0.85595008   -6.5710918    11.240626  0.011072327  0.011550245            7 
   84700   0.85576576   -6.5060226    11.282251  0.011100208  0.011548946            5 
   84800   0.86311896   -6.5119674    11.241601   0.01104717  0.011547654            4 
   84900   0.84008733   -6.5689436    11.212244  0.011005343  0.011545883           12 
   85000   0.83428574   -6.5278111    11.253807  0.011033145  0.011543804            4 
   85100   0.83918812   -6.5511005    11.336012  0.011100678  0.011542229            4 
   85200   0.82353227   -6.5457299    11.295053  0.011047587  0.011540468            6 
   85300   0.83841505    -6.487298    11.354467  0.011092679  0.011538952            3 
   85400   0.82621413   -6.5592664    11.378739  0.011103375  0.011537563            2 
   85500     0.866548   -6.6318598     11.38324  0.011094776  0.011536118            3 
   85600   0.81997201   -6.5222288    11.497692  0.011193236  0.011535148            5 
   85700   0.82683867   -6.5002547    11.487994  0.011170745  0.011534352            8 
   85800   0.83870113   -6.5566828    11.459821  0.011130362  0.011533282           11 
   85900   0.85838687   -6.6006385    11.452389  0.011110195  0.011532029           13 
   86000   0.79106594   -6.6208449    11.450991  0.011095922  0.011530613            8 
   86100   0.84709724   -6.6327566     11.44889  0.011081001  0.011528854            9 
   86200   0.83418467   -6.5699071    11.483344  0.011101454  0.011527292            7 
   86300   0.84190499   -6.5126591    11.582261  0.011184107  0.011526241           10 
   86400   0.81281009   -6.5651709    11.566121  0.011155595  0.011525321            7 
   86500   0.84959052   -6.5889079    11.630041  0.011204278  0.011524458           13 
   86600   0.81269194   -6.5614524    11.660586  0.011220733  0.011523873            8 
   86700   0.84661076   -6.6062189    11.623943  0.011172571  0.011523077            5 
   86800   0.80517156   -6.6054593    11.608685  0.011145051  0.011521864            3 
   86900   0.83528138   -6.5388975    11.631289  0.011153902  0.011520623            3 
   87000   0.88452834   -6.5362543    11.614349  0.011124856  0.011519747            5 
   87100   0.82950233   -6.5456245    11.590134  0.011088915  0.011518615            2 
   87200   0.86178765   -6.5519441     11.65627  0.011139402  0.011517514            6 
   87300   0.81638895   -6.5197741    11.664786   0.01113477  0.011516427            4 
   87400   0.85895995   -6.6211007    11.678956  0.011135542  0.011515209           12 
   87500   0.86132072   -6.6004294     11.72559  0.011167229  0.011514304            8 
   87600    0.8172902   -6.5184128    11.760239  0.011187442  0.011513453            7 
   87700   0.86733644   -6.4749006    11.776125  0.011189781  0.011513074            6 
   87800    0.8551785     -6.48605     11.71328  0.011117387  0.011512585            8 
   87900   0.84107034   -6.5422612    11.674395  0.011067876  0.011511724            4 
   88000   0.86261661   -6.5255585     11.67921  0.011059858  0.011510523            5 
   88100   0.87034653   -6.4869667    11.675669  0.011043955  0.011509322            5 
   88200   0.82753674   -6.5597533    11.698254  0.011052772  0.011507897            5 
   88300   0.83415775   -6.5180525    11.725111  0.011065601  0.011506514            2 
   88400   0.86415675   -6.5308145    11.760404  0.011086353  0.011505208            2 
   88500   0.87169072   -6.5982546    11.760302  0.011073731  0.011503989            2 
   88600   0.80468012   -6.5713614    11.804165  0.011102487  0.011502489            4 
   88700   0.84849377    -6.591827    11.883812  0.011164798  0.011501331            2 
   88800   0.85249542   -6.5078089     11.87216  0.011141291  0.011500275            5 
   88900    0.8684007   -6.5724157    11.855415  0.011113062   0.01149933            3 
   89000   0.85106336    -6.573135     11.84711  0.011092799  0.011498293            3 
   89100   0.88628371   -6.5521884    11.842588   0.01107612  0.011497189           11 
   89200   0.82156966   -6.5172018    11.844176  0.011065186  0.011495746            6 
   89300   0.85953707   -6.5794327    11.827693  0.011037414  0.011494068            4 
   89400   0.80366352   -6.5816649    11.833502  0.011030483  0.011492197            9 
   89500   0.85705468    -6.617932    11.819783  0.011005385  0.011490225           10 
   89600   0.82838957   -6.5521335     11.83056  0.011003125  0.011488433            6 
   89700   0.81401175   -6.5546351    11.817884  0.010979082  0.011486495           14 
   89800   0.81028466    -6.587293    11.787385  0.010938553  0.011484281            4 
   89900   0.86046538   -6.5368465     11.81815  0.010954904  0.011482018            5 
   90000   0.84711805   -6.5562001    11.782478  0.010909701   0.01147996            4 
   90100   0.86816658   -6.5834896    11.768734  0.010884881    0.0114777            9 
   90200   0.85091382   -6.5531515    11.805545  0.010906823  0.011475392            5 
   90300    0.8651566   -6.5049449    11.803072  0.010892463  0.011473061            2 
   90400   0.84678481   -6.5281716    11.825471  0.010901061  0.011470789            5 
   90500   0.86613116   -6.5870611    11.839788  0.010902199  0.011468469            8 
   90600   0.87486459   -6.4895181    11.871162  0.010919023  0.011466219            8 
   90700   0.88326216   -6.5619623    11.876557  0.010911942  0.011464062            2 
   90800   0.85100934   -6.5875577    11.863986  0.010888386  0.011461638            5 
   90900   0.82996995    -6.543848    11.974331  0.010977568  0.011459445            7 
   91000   0.82173608   -6.6116989    12.015506   0.01100321  0.011457469           11 
   91100   0.83230141   -6.5953373    11.987057  0.010965109  0.011455249            9 
   91200   0.82287566   -6.5988927     11.95521  0.010923985  0.011452763           13 
   91300   0.81374176   -6.5558019    11.914369  0.010874743  0.011450192            5 
   91400   0.86264473   -6.5744273    11.921266  0.010869133  0.011447558           19 
   91500   0.83059581    -6.536791    11.888368  0.010827293  0.011445022           11 
   91600   0.86881577   -6.5386161    11.916677  0.010841227  0.011442402           21 
   91700   0.84554592   -6.5724808     11.95442  0.010863704  0.011439729            8 
   91800   0.85626797   -6.5545923    11.933189  0.010832597  0.011437026            9 
   91900   0.85246394   -6.5369566    11.934709  0.010822188   0.01143446           12 
   92000   0.87268832   -6.5056825    11.945772  0.010820446  0.011431915            5 
   92100   0.87448208   -6.5791948    11.950084  0.010812599   0.01142927           16 
   92200   0.86393533    -6.580124    11.984666  0.010832128  0.011426608            8 
   92300   0.85098341   -6.5253075    12.005645  0.010839333  0.011424079           20 
   92400   0.86555099   -6.5340754    12.054478  0.010871643   0.01142182           11 
   92500   0.82939769   -6.4977447    12.103722  0.010904254  0.011419707            7 
   92600   0.85521698   -6.5949375     12.08103  0.010872057  0.011417523           13 
   92700   0.88708452    -6.561192    12.120415  0.010895735  0.011415272           10 
   92800   0.87188392   -6.5579663     12.14471   0.01090581  0.011413161            2 
   92900   0.84650308   -6.6081104    12.066324  0.010823757  0.011410733            5 
   93000   0.87198039   -6.5701354    12.139279   0.01087749  0.011408105            4 
   93100   0.84280398   -6.5695252    12.173434  0.010896378   0.01140585            4 
   93200   0.86238686   -6.5034408    12.213905  0.010920874  0.011403379            9 
   93300   0.84428177   -6.5081388    12.169893  0.010869858  0.011401135            6 
   93400   0.83722665   -6.5476325    12.188462  0.010874788  0.011398786            3 
   93500   0.87466684   -6.5399188    12.210797  0.010883063  0.011396556            2 
   93600   0.87428225   -6.5519278    12.206224  0.010867365  0.011394402            1 
   93700   0.84676413    -6.526499    12.167874  0.010821659  0.011392123            3 
   93800   0.87495958   -6.5002566    12.217054  0.010853815  0.011389976            3 
   93900   0.87147024   -6.5282644    12.285059  0.010902608  0.011387997            9 
   94000   0.83148003   -6.5341381    12.313345  0.010916086  0.011386276            4 
   94100   0.87208404   -6.5830116    12.393511  0.010975479  0.011384592            8 
   94200   0.85061679   -6.5188057    12.464693  0.011026798  0.011383208            5 
   94300   0.81712965   -6.4898814    12.524682  0.011068117   0.01138213           12 
   94400   0.84821966   -6.5807692    12.513716  0.011046713  0.011381142            5 
   94500   0.86511271   -6.5266683     12.52254  0.011042804  0.011380188            4 
   94600   0.85697382   -6.5485052    12.525427  0.011033674  0.011379226            3 
   94700   0.88173183    -6.545526    12.500221  0.010999842  0.011378261            4 
   94800   0.80892552   -6.4926724     12.54212   0.01102507    0.0113773            8 
   94900   0.87445673   -6.5115837    12.568765   0.01103685  0.011376446           11 
   95000   0.85765088   -6.5800691    12.599401  0.011052106  0.011375487            6 
   95100   0.81927285     -6.54893    12.636531  0.011073021  0.011374293            2 
   95200   0.84293912   -6.5206701    12.649547  0.011072782  0.011373353            6 
   95300   0.89183528   -6.5005076    12.658114  0.011068655  0.011372464            7 
   95400   0.83590829   -6.5047374    12.687668  0.011082868  0.011371713            6 
   95500   0.85579352   -6.5379549    12.711944  0.011092447  0.011371064           12 
   95600   0.82489458   -6.5564712    12.753137  0.011116751  0.011370458           15 
   95700   0.81852765   -6.5468469    12.783907  0.011131929  0.011369914            5 
   95800   0.86912635   -6.5215144     12.83992  0.011169032  0.011369663            4 
   95900    0.8421391   -6.4899952    12.862922  0.011177374  0.011369623            5 
   96000   0.84008128   -6.5393981    12.886976  0.011186611  0.011369594            8 
   96100   0.83654983   -6.5798921    12.877039  0.011166354  0.011369437            7 
   96200   0.85453138   -6.5354668    12.839973  0.011122638  0.011369143            4 
   96300   0.86860996   -6.5291966    12.850248  0.011119979  0.011368903           10 
   96400   0.86500912   -6.4993725    12.857026  0.011114304  0.011368689            9 
   96500   0.83182296   -6.5504498    12.888086  0.011129608  0.011368407            7 
   96600   0.84654813   -6.5341257    12.919326  0.011145036  0.011368272            4 
   96700   0.86271602   -6.5922965    12.876093  0.011096254  0.011367857            6 
   96800   0.85894825   -6.5942716    12.821783  0.011038037  0.011367069            7 
   96900    0.8245701   -6.5705119    12.851092  0.011051851  0.011366134            4 
   97000   0.85171719   -6.5786364    12.910889  0.011091829  0.011365321            9 
   97100   0.85714528   -6.6351239    12.902375  0.011073099  0.011364552            4 
   97200   0.86104545   -6.6114577    12.903023  0.011062263  0.011363693            5 
   97300   0.87197296   -6.6387863    12.944808   0.01108668  0.011362908            5 
   97400   0.83896896   -6.5939482    12.938875  0.011070221  0.011362056            4 
   97500   0.86185985   -6.5118715    12.950096  0.011068458  0.011361391            5 
   97600   0.80363437   -6.5421583     12.97438  0.011077852   0.01136072            3 
   97700   0.84975744   -6.5470906    13.012928  0.011099392  0.011360073            6 
   97800   0.82348231   -6.5896425    13.044796  0.011115197  0.011359684           13 
   97900   0.82029446   -6.6289167    13.063576  0.011119829  0.011359072            4 
   98000   0.85049083   -6.5939773    13.140012   0.01117348  0.011358741            6 
   98100   0.82726165   -6.5849296     13.11635  0.011141989  0.011358327           11 
   98200   0.83481625   -6.6013421     12.99454  0.011027274  0.011357532            9 
   98300   0.83595389   -6.5764249    13.100162  0.011105597  0.011356793            4 
   98400   0.86407535   -6.5660614    13.153817   0.01113975  0.011356515            3 
   98500   0.85306428   -6.5662698    13.066883  0.011054892  0.011355986            5 
   98600    0.8422399   -6.6091496    13.123578  0.011091597  0.011355197            3 
   98700    0.8635684   -6.5630653    13.133082  0.011088384  0.011354474            3 
   98800   0.82453686   -6.5403385    13.124148  0.011069626   0.01135369            3 
   98900    0.8580525   -6.6146652    13.031074  0.010980008  0.011352622            4 
   99000   0.81813579   -6.6468955    13.039411  0.010975935  0.011351202            3 
   99100   0.82643836   -6.5675701    13.098647  0.011014671  0.011349979            4 
   99200    0.8511383   -6.5557466    13.183057  0.011074477  0.011349131            2 
   99300   0.80837499   -6.5691398      13.1788  0.011059751  0.011348288            8 
   99400   0.84229254   -6.6134706    13.157109   0.01103044  0.011347241            5 
   99500   0.87486109       -6.573    13.185188  0.011042871  0.011346131            3 
   99600   0.82799689   -6.5030017    13.154423  0.011006044   0.01134509           12 
   99700   0.79807488   -6.5254172    13.134599  0.010978434  0.011343993           15 
   99800   0.86758136   -6.6162806    13.116176  0.010952051  0.011342616            7 
   99900   0.82652613   -6.6055084    13.220229  0.011027885  0.011341561            3 
  100000   0.85640566    -6.587637    13.274262  0.011061885  0.011340526           12 
  100100   0.84126981   -6.5592276    13.257581  0.011036947  0.011339473           11 
  100200   0.86607158   -6.5614541     13.21798  0.010992997   0.01133838           15 
  100300   0.83153752   -6.6158059    13.178463  0.010949205   0.01133701           15 
  100400   0.88998681   -6.6570782     13.23852  0.010988147  0.011335794            7 
  100500   0.82760883   -6.6140465    13.264446  0.010998711  0.011334608            8 
  100600   0.84780941   -6.5884761    13.298173  0.011015716  0.011333509            9 
  100700   0.89367894   -6.6092381    13.384639  0.011076331  0.011332602           12 
  100800   0.86290755   -6.5669707    13.348052  0.011035095  0.011331984           17 
  100900   0.84213839    -6.533681    13.359682  0.011033765  0.011331153            8 
  101000    0.8745299   -6.5605357    13.374606  0.011035153  0.011330544            8 
  101100   0.82472504   -6.5566089    13.401619  0.011046504  0.011329945            6 
  101200   0.87492669   -6.5382802    13.412045  0.011044174  0.011329407           10 
  101300   0.84306054   -6.5436961    13.439283  0.011055679  0.011328836           21 
  101400   0.85433781   -6.5772561    13.402408   0.01101447  0.011328068           10 
  101500   0.82326723   -6.6018009    13.390011   0.01099344  0.011327082           24 
  101600   0.88681013   -6.6476332    13.435244  0.011019721  0.011326007           17 
  101700   0.86036373   -6.5391741    13.545962  0.011099609  0.011325301           12 
  101800    0.8477645   -6.5389772    13.569056  0.011107609  0.011324725            9 
  101900   0.82039519   -6.5617882    13.590978  0.011114637  0.011324013            9 
  102000   0.84267022   -6.5718536    13.588129  0.011101413   0.01132332           13 
  102100   0.85920415   -6.5326475    13.600291  0.011100466  0.011322777           17 
  102200   0.82818707   -6.4863128    13.537687  0.011038557  0.011322333           10 
  102300   0.86110154   -6.5074702    13.529694  0.011021256  0.011321639            6 
  102400   0.86093016   -6.5740634    13.529395   0.01101025  0.011320799            8 
  102500   0.85827638   -6.5884188    13.544654  0.011011914  0.011319778            9 
  102600   0.85463736   -6.5342435    13.595796  0.011042719  0.011318936           16 
  102700   0.83427565   -6.5042583     13.60786  0.011041756  0.011318085            6 
  102800   0.83190765   -6.5989763    13.621286  0.011041899  0.011317337            9 
  102900   0.82860145   -6.5724043    13.646328  0.011051448  0.011316576            5 
  103000   0.85631498   -6.5607695      13.6723  0.011061731  0.011315883            5 
  103100   0.87046901   -6.5589033    13.566577  0.010965549  0.011315073           10 
  103200   0.85075362   -6.5607192    13.597981  0.010980282  0.011313988           13 
  103300   0.83238062   -6.5581699    13.659718  0.011019457  0.011313044            5 
  103400    0.8862205   -6.6498655    13.657028  0.011006631  0.011312186            4 
  103500   0.87392938   -6.6124615    13.700924  0.011031339  0.011311295           12 
  103600   0.86771855   -6.5763686    13.749131  0.011059468  0.011310616            4 
  103700   0.86746151   -6.5036577    13.704984  0.011013327  0.011310007            6 
  103800   0.86104145   -6.5885495    13.655363   0.01096288  0.011309129            7 
  103900   0.83817243   -6.5319743     13.72405  0.011007419  0.011308222            5 
  104000   0.82931327   -6.5199673     13.77148   0.01103484  0.011307512            7 
Loop time of 192.904 on 12 procs for 100000 steps with 864 atoms

Performance: 89578.462 tau/day, 518.394 timesteps/s
99.4% CPU use with 12 MPI tasks x no OpenMP threads

MPI task timing breakdown:
Section |  min time  |  avg time  |  max time  |%varavg| %total
---------------------------------------------------------------
Pair    | 9.6031     | 10.244     | 10.809     |  10.9 |  5.31
Neigh   | 0.93381    | 0.97465    | 1.0141     |   2.2 |  0.51
Comm    | 7.7222     | 8.4056     | 9.2411     |  14.8 |  4.36
Output  | 2.456      | 2.4569     | 2.4644     |   0.1 |  1.27
Modify  | 168.63     | 168.96     | 169.37     |   1.6 | 87.59
Other   |            | 1.865      |            |       |  0.97

Nlocal:        72.0000 ave          78 max          67 min
Histogram: 1 0 2 3 1 2 2 0 0 1
Nghost:        1563.92 ave        1573 max        1552 min
Histogram: 2 0 2 0 1 0 1 1 2 3
Neighs:        8177.33 ave        8862 max        7361 min
Histogram: 1 1 2 0 0 2 1 4 0 1
FullNghs:      16355.5 ave       17711 max       15183 min
Histogram: 1 0 1 3 2 2 2 0 0 1

Total # of neighbors = 196266
Ave neighs/atom = 227.15972
Neighbor list builds = 5114
Dangerous builds = 0

#clear
#
#next RN
#
#jump SELF



Total wall time: 0:03:13
