
units lj                  # Use reduced LJ style units
atom_style atomic         # Uncharged point particles
atom_modify map hash      # Needed for indexing of clusters etc
                          # Used to be able to find where atoms are in relation to each other.

# Define a lattice with which to populate the simulation cell. With units
# set to 'lj' the second argument to the lattice command is the reduced
# density rho* and the spacings are multiples of that required to acheive
# that density. Also define a simulation cell called 'box' in lattice units
# and fill it with atoms. Here we're creating a box which is ten lattice
# constants in each direction.
lattice fcc 1.0 spacing 1 1 1                 # All equal sizes - gives the right reduced density.
Lattice spacing in x,y,z = 1.5874011 1.5874011 1.5874011

region box block 0 6 0 6 0 6 units lattice # Defines a region, "box", in lattice units
create_box 1 box                              # Creates a simulation box as specified above,
Created orthogonal box = (0.0000000 0.0000000 0.0000000) to (9.5244063 9.5244063 9.5244063)
  2 by 2 by 3 MPI processor grid
                                              # with one type of atom
create_atoms 1 box                            # Creates particles on lattice points
Created 864 atoms
  using lattice units in orthogonal box = (0.0000000 0.0000000 0.0000000) to (9.5244063 9.5244063 9.5244063)
  create_atoms CPU = 0.001 seconds


# Set the mass of the first (and only) atom type.
mass 1 1.0

# Lennard-Jones interactions between particles, 3.5 sigma cut-off. Apply
# long range tail corrections to energy and pressure and set all coefficients
# to unity since we work in reduced units here. Note that this doesn't shift
# the potential such that it goes to zero at the cutoff. That would require
# pair_modify('shift', 'yes').
pair_style lj/cut  3.5      # non-GPU version
pair_modify tail  yes
pair_coeff 1  1  1.0  1.0   # Intearaction between 1 and 1 set with epsilon = 1 and sigma = 1

write_data data.*
System init for write_data ...
Neighbor list info ...
  update every 1 steps, delay 10 steps, check yes
  max neighbors/atom: 2000, page size: 100000
  master list distance cutoff = 3.8
  ghost atom cutoff = 3.8
  binsize = 1.9, bins = 6 6 6
  1 neighbor lists, perpetual/occasional/extra = 1 0 0
  (1) pair lj/cut, perpetual
      attributes: half, newton on
      pair build: half/bin/atomonly/newton
      stencil: half/bin/3d
      bin: standard

#############################
#   M E L T   S Y S T E M   #
#############################

velocity all create 2.4 2750902 mom yes dist gaussian # Assign velocities
                                                    # Temperature 2.4, random number seed, zero linear momentum
						                                                        # Gaussian distribution

timestep 0.002   # simulation timestep
thermo 100       # output thermodynamic data every 100 steps

# Define a fix  in this case with index 1 applied to all
# particles in the simulation. This fix is for simulations
# in the anisotropic NPT ensemble. Note that we use the MTK
# correction.
fix 1 all npt temp 2.4 2.4 0.1 iso 5.68 5.68 0.5 mtk yes tchain 5 pchain 5 # Use NPT ensemble
                                                                         # Set temperature and pressure and damping
                                                                         # Numbers of thermostats in chain and in barostat
run 1000         # run for 10000 steps
Per MPI rank memory allocation (min/avg/max) = 3.633 | 3.633 | 3.634 Mbytes
Step Temp E_pair E_mol TotEng Press Volume 
       0          2.4   -8.3859253            0    -4.790092     -2.24275          864 
     100    1.3007594   -6.4407842            0   -4.4919034    5.3582762    891.69205 
     200    1.5828213   -6.0796178            0   -3.7081338    6.4338598    907.46239 
     300    1.7629056     -5.73851            0   -3.0972122    5.5953229    954.02439 
     400    1.8733232   -5.2785237            0   -2.4717912    6.0585808    994.36537 
     500      2.02574   -4.9360708            0   -1.9009777    5.7478153    1042.8978 
     600    2.2112838   -4.6895875            0   -1.3765009    5.7138268    1079.0368 
     700    2.3146746   -4.4629638            0  -0.99497044    5.6088298    1118.0222 
     800    2.4734008     -4.39503            0   -0.6892229    5.7937797    1123.7282 
     900    2.4206618   -4.2767239            0  -0.64993368    5.5531987    1146.9555 
    1000    2.3618098   -4.2459295            0  -0.70731524    5.7000582    1143.3852 
Loop time of 0.18948 on 12 procs for 1000 steps with 864 atoms

Performance: 911969.698 tau/day, 5277.602 timesteps/s
99.4% CPU use with 12 MPI tasks x no OpenMP threads

MPI task timing breakdown:
Section |  min time  |  avg time  |  max time  |%varavg| %total
---------------------------------------------------------------
Pair    | 0.069105   | 0.078234   | 0.10043    |   3.2 | 41.29
Neigh   | 0.01183    | 0.013056   | 0.015212   |   1.0 |  6.89
Comm    | 0.055839   | 0.079993   | 0.09075    |   3.6 | 42.22
Output  | 0.00020669 | 0.00021795 | 0.00027641 |   0.0 |  0.12
Modify  | 0.01564    | 0.016335   | 0.016932   |   0.3 |  8.62
Other   |            | 0.001645   |            |       |  0.87

Nlocal:        72.0000 ave          80 max          66 min
Histogram: 2 1 2 2 1 0 2 0 0 2
Nghost:        1314.75 ave        1327 max        1295 min
Histogram: 1 0 0 2 3 0 0 1 2 3
Neighs:        6211.67 ave        7136 max        5326 min
Histogram: 2 0 0 2 1 4 1 0 0 2

Total # of neighbors = 74540
Ave neighs/atom = 86.273148
Neighbor list builds = 80
Dangerous builds = 2

# Equilibrate just above the melting temperature to avoid step fn in T

fix 1 all npt temp 1.25 1.25 0.1 iso 5.68 5.68 0.5 mtk yes tchain 5 pchain 5
run 1000
Per MPI rank memory allocation (min/avg/max) = 3.634 | 3.634 | 3.634 Mbytes
Step Temp E_pair E_mol TotEng Press Volume 
    1000    2.3618098   -4.2459295            0  -0.70731524    5.7000582    1143.3852 
    1100    1.8617945   -4.5967525            0    -1.807293    5.9593679    1083.5566 
    1200      1.66126   -5.0091582            0   -2.5201524    5.9308167    1028.0056 
    1300    1.4533368   -5.3154554            0   -3.1379734    5.5185254    997.93023 
    1400    1.3100587   -5.5224566            0    -3.559643    5.2858775     978.0358 
    1500    1.3306301   -5.7450087            0   -3.7513736    5.2687861    956.68836 
    1600    1.2302857    -5.777427            0   -3.9341343     5.385203    950.58576 
    1700    1.2545134   -5.8251615            0   -3.9455694    5.6370291    940.07281 
    1800    1.2669685   -5.8434457            0   -3.9451925    6.1076728    931.13358 
    1900    1.2975362   -5.8185374            0   -3.8744858    5.5765884    942.23221 
    2000    1.2225624   -5.8503078            0   -4.0185867    5.1330896    948.19804 
Loop time of 0.163484 on 12 procs for 1000 steps with 864 atoms

Performance: 1056982.657 tau/day, 6116.798 timesteps/s
99.8% CPU use with 12 MPI tasks x no OpenMP threads

MPI task timing breakdown:
Section |  min time  |  avg time  |  max time  |%varavg| %total
---------------------------------------------------------------
Pair    | 0.06971    | 0.077044   | 0.083484   |   1.7 | 47.13
Neigh   | 0.0096557  | 0.010587   | 0.01188    |   0.6 |  6.48
Comm    | 0.051646   | 0.059062   | 0.067433   |   2.2 | 36.13
Output  | 0.00019842 | 0.00020463 | 0.00024596 |   0.0 |  0.13
Modify  | 0.014343   | 0.014712   | 0.015058   |   0.1 |  9.00
Other   |            | 0.001875   |            |       |  1.15

Nlocal:        72.0000 ave          79 max          65 min
Histogram: 1 1 0 4 0 1 1 3 0 1
Nghost:        1466.08 ave        1476 max        1447 min
Histogram: 1 1 0 0 2 0 0 4 1 3
Neighs:        7466.67 ave        8131 max        6694 min
Histogram: 1 0 2 0 3 1 3 0 0 2

Total # of neighbors = 89600
Ave neighs/atom = 103.70370
Neighbor list builds = 67
Dangerous builds = 0


# Small amount of linear quench

fix 1 all npt temp 1.25 ${temp} 0.1 iso 5.68 5.68 0.5 mtk yes tchain 5 pchain 5
fix 1 all npt temp 1.25 0.88 0.1 iso 5.68 5.68 0.5 mtk yes tchain 5 pchain 5
run 2000
Per MPI rank memory allocation (min/avg/max) = 3.634 | 3.634 | 3.634 Mbytes
Step Temp E_pair E_mol TotEng Press Volume 
    2000    1.2225624   -5.8503078            0   -4.0185867    5.1330896    948.19804 
    2100    1.2532732   -5.8619413            0   -3.9842073    5.4162512    941.40051 
    2200     1.227886   -5.9065997            0   -4.0669025    5.8168742    929.21275 
    2300    1.1821236    -5.917071            0    -4.145938    6.2940046    919.69456 
    2400    1.1852332   -5.9673943            0   -4.1916022    5.9252814    921.52259 
    2500     1.149035    -5.963573            0   -4.2420154      5.75539    922.94363 
    2600    1.1276659    -5.997279            0   -4.3077379    5.5698299    923.07971 
    2700    1.1046091   -6.0039876            0   -4.3489916    5.6314868    921.29157 
    2800    1.1038641   -6.0697641            0   -4.4158844    5.7220977    914.68449 
    2900    1.1096542   -6.0931863            0   -4.4306315    5.7885422    911.07013 
    3000     1.059407   -6.1542129            0   -4.5669416     5.589287    908.93588 
    3100    1.0213525   -6.1754392            0   -4.6451835    5.6314197    906.64014 
    3200    1.0274151   -6.2451576            0   -4.7058187    6.0712117    893.41697 
    3300    1.0241896   -6.1810732            0    -4.646567     5.777195     903.1846 
    3400   0.97949509   -6.2077013            0   -4.7401592    5.4497481    905.80689 
    3500   0.97185778   -6.2579925            0   -4.8018931    5.5825786    898.99551 
    3600   0.97564133   -6.2641702            0    -4.802402    5.6922737    897.02764 
    3700   0.94419341   -6.3116635            0   -4.8970126    6.2448946     883.9221 
    3800   0.93263161   -6.3324087            0   -4.9350805    5.9473725    886.45388 
    3900   0.93289443   -6.4567528            0   -5.0590307     5.311587    887.34866 
    4000   0.85651734   -6.4524074            0   -5.1691184      5.04735    890.23869 
Loop time of 0.35441 on 12 procs for 2000 steps with 864 atoms

Performance: 975140.633 tau/day, 5643.175 timesteps/s
99.9% CPU use with 12 MPI tasks x no OpenMP threads

MPI task timing breakdown:
Section |  min time  |  avg time  |  max time  |%varavg| %total
---------------------------------------------------------------
Pair    | 0.15552    | 0.1683     | 0.19026    |   2.4 | 47.49
Neigh   | 0.01721    | 0.018296   | 0.020564   |   0.8 |  5.16
Comm    | 0.10842    | 0.13248    | 0.14497    |   3.0 | 37.38
Output  | 0.00037334 | 0.00038709 | 0.00048168 |   0.0 |  0.11
Modify  | 0.029805   | 0.030453   | 0.031152   |   0.2 |  8.59
Other   |            | 0.004495   |            |       |  1.27

Nlocal:        72.0000 ave          74 max          70 min
Histogram: 2 0 2 0 0 4 0 2 0 2
Nghost:        1539.50 ave        1548 max        1524 min
Histogram: 1 0 2 0 0 2 0 0 5 2
Neighs:        7973.33 ave        8785 max        7634 min
Histogram: 4 0 3 2 1 1 0 0 0 1

Total # of neighbors = 95680
Ave neighs/atom = 110.74074
Neighbor list builds = 112
Dangerous builds = 0

#############################
# F R E E Z E  S Y S T E M  #
#############################

# Define solid atoms. This closely follows ten Wolde  Ruiz-Montero and Frenkel  Faraday Discuss  1996  104  93-110
# Compute components of the per-atom q6 vector
compute q6 all orientorder/atom degrees 1 6 components 6 nnn NULL cutoff 1.3 # compute the Q6 parameter.
                                                                             # Use all neighbours within 1.3 unit cell.

# get number of connections
compute coord_number all coord/atom orientorder q6 0.5

# An atom is solid if it has 8 or more connections (of a possible 14)
variable is_solid atom c_coord_number>=8
group solid dynamic all var is_solid    # Must be dynamic to update
dynamic group solid defined

# do clustering
compute cluster solid cluster/atom 1.3 # Create a cluster where all atoms within are solid and max 1.3 units from another member

# define chunks one chunk per cluster
compute clus_chunks solid chunk/atom c_cluster nchunk every compress yes  # Says which atoms are in which chunk

# count the size of each chunk
compute size_chunks solid property/chunk clus_chunks count


# Find the maximum entry in the vector of chunk sizes
variable max_n equal max(c_size_chunks)


# Thermo style which includes this variable
# thermo_style custom step temp pe vol v_max_n

thermo ${N}  # Print the thermo information every 100 steps
thermo 100  

# Reset the npt fix at a lower temperature (below freezing)

compute myRDF all rdf 100
fix 2 all ave/time 1 50 100 c_myRDF[*] file pcf.rdf mode vector


compute msd all msd com yes
variable twopoint equal c_msd[4]/6/(step*dt+1.0e-6)
fix 9 all vector 10 c_msd[4]
variable fit equal slope(f_9)/6/(10*dt)
thermo_style custom step temp pe c_msd[4] v_twopoint v_fit v_max_n


fix 1  all npt temp  ${temp} ${temp}  0.1  iso  5.68  5.68  0.5  mtk yes tchain  5  pchain  5
fix 1  all npt temp  0.88 ${temp}  0.1  iso  5.68  5.68  0.5  mtk yes tchain  5  pchain  5
fix 1  all npt temp  0.88 0.88  0.1  iso  5.68  5.68  0.5  mtk yes tchain  5  pchain  5

dump dmp2 all dcd ${N} traj.dcd
dump dmp2 all dcd 100 traj.dcd
dump dmp3 all dcd ${N} traj_unwrap.dcd
dump dmp3 all dcd 100 traj_unwrap.dcd
dump_modify dmp3 unwrap yes


# fix rnuntil all halt ${N} v_max_n >= 3980 error soft message no   # Stop when solidified

run 100000 # 5000000  # Run for this many steps
Neighbor list info ...
  update every 1 steps, delay 10 steps, check yes
  max neighbors/atom: 2000, page size: 100000
  master list distance cutoff = 3.8
  ghost atom cutoff = 3.8
  binsize = 1.9, bins = 6 6 6
  5 neighbor lists, perpetual/occasional/extra = 1 4 0
  (1) pair lj/cut, perpetual
      attributes: half, newton on
      pair build: half/bin/atomonly/newton
      stencil: half/bin/3d
      bin: standard
  (2) compute orientorder/atom, occasional
      attributes: full, newton on
      pair build: full/bin/atomonly
      stencil: full/bin/3d
      bin: standard
  (3) compute coord/atom, occasional
      attributes: full, newton on
      pair build: full/bin/atomonly
      stencil: full/bin/3d
      bin: standard
  (4) compute cluster/atom, occasional
      attributes: full, newton on
      pair build: full/bin/atomonly
      stencil: full/bin/3d
      bin: standard
  (5) compute rdf, occasional, copy from (1)
      attributes: half, newton on
      pair build: copy
      stencil: none
      bin: none
Per MPI rank memory allocation (min/avg/max) = 9.699 | 9.700 | 9.702 Mbytes
Step Temp PotEng c_msd[4] v_twopoint v_fit v_max_n 
    4000   0.85651734   -6.4524074 7.9068697e-31 1.6472643e-32 8.3333333e+20           10 
    4100   0.89801768   -6.4316801  0.042983291 0.00087364402  0.038331499            3 
    4200   0.86795865   -6.4758346   0.07382137 0.0014647096  0.033250714            6 
    4300   0.91034163   -6.4613576  0.094284785 0.0018272243  0.027219437            2 
    4400    0.8555993   -6.4153821   0.11633899 0.0022033897  0.023516614            3 
    4500   0.83035553   -6.4391357   0.13493039 0.0024987106  0.021521071            3 
    4600   0.88856677   -6.5029549   0.15166263 0.0027475112  0.019943792            4 
    4700   0.86519817   -6.4548365   0.17111744 0.0030339968  0.018978771            7 
    4800   0.92935502   -6.4543601   0.19356267 0.0033604626  0.018325326            6 
    4900   0.85998277   -6.3673859   0.22319802 0.0037958842  0.018397016            4 
    5000   0.86398969   -6.4332476   0.23864387 0.0039773975  0.018373723            4 
    5100   0.89219746   -6.4332947   0.25302143 0.0041343366   0.01807145            3 
    5200   0.85105165   -6.4714539   0.26517653 0.0042496234  0.017654315            1 
    5300   0.88133895   -6.5070182   0.27436397 0.0043138986  0.017093304            5 
    5400   0.84520176   -6.5258062   0.29565592  0.004562591  0.016624219            1 
    5500   0.86278071   -6.4519418   0.31247074 0.0047344046  0.016314254            2 
    5600   0.89496257   -6.4716421   0.32129566  0.004781185  0.015947084            2 
    5700   0.86260941   -6.5160964   0.32758922 0.0047893157   0.01549255            4 
    5800   0.84696945   -6.4323214   0.35482887 0.0050981155  0.015177244            3 
    5900   0.86108657   -6.4665832   0.37352689 0.0052758031  0.015019771            3 
    6000   0.87900708   -6.5232746    0.3862753 0.0053649343   0.01490008            4 
    6100   0.83117784    -6.504001    0.4031678 0.0055077564  0.014738762            6 
    6200   0.90414834   -6.4844968   0.42070201 0.0056545965  0.014637187            5 
    6300   0.86984385   -6.4706705   0.44386139  0.005871182  0.014560436            2 
    6400   0.91569695    -6.531821   0.47233579 0.0061502051   0.01460841            6 
    6500   0.84547909    -6.491989   0.49987665 0.0064086746   0.01472674            6 
    6600   0.89463253   -6.4782605   0.51883677 0.0065509689   0.01483153           10 
    6700    0.9188268   -6.5084844   0.53546122 0.0066599649  0.014915453            4 
    6800    0.9007618   -6.5253498    0.5562422 0.0068166932  0.014999401            4 
    6900   0.83602054   -6.4760895   0.56951674 0.0068782209  0.015058425            3 
    7000    0.9130324   -6.5087459   0.58625066  0.006979174  0.015083583            5 
    7100   0.88957337   -6.4673632   0.60620001 0.0071150231  0.015111495            2 
    7200   0.88276445   -6.4791689   0.63023833 0.0072944247  0.015150863            2 
    7300   0.83085802   -6.4936312    0.6473702 0.0073900703    0.0151909            3 
    7400   0.86931642   -6.4520956   0.65634163 0.0073912341  0.015196334            2 
    7500   0.89286524   -6.4397877   0.67194888 0.0074660982  0.015187856            3 
    7600   0.84270919   -6.4621313   0.68985526 0.0075642019   0.01516188            2 
    7700   0.88468715   -6.5399223   0.71300012  0.007716451  0.015153668            3 
    7800   0.86064838   -6.5515499   0.73722305 0.0078763142  0.015167292            4 
    7900   0.85808087   -6.4910011   0.75598824  0.007974559  0.015174077            2 
    8000   0.86474186   -6.4234843   0.78263893 0.0081524883  0.015204858            5 
    8100   0.85440918   -6.5221613   0.79930613 0.0082233136  0.015245219            4 
    8200   0.86097304   -6.5043718   0.80296937 0.0081602574  0.015252923           16 
    8300   0.92682928   -6.5235843   0.80687178 0.0081011218  0.015222024           17 
    8400   0.90537046   -6.5703818   0.80873999 0.0080232137  0.015155505           12 
    8500   0.85853425   -6.5509177   0.82873774 0.0081248793  0.015083195            7 
    8600   0.86439246   -6.5050693   0.85251728 0.0082608259  0.015034188            6 
    8700   0.84844445   -6.5074955   0.85922528 0.0082301268  0.014970612            7 
    8800   0.83160957   -6.5678978   0.87471455 0.0082832812  0.014899059            3 
    8900    0.8645927    -6.525479   0.90610409 0.0084841202  0.014861566            5 
    9000   0.88414088   -6.5055846   0.91567734 0.0084784934  0.014826847            6 
    9100   0.89921015   -6.5095563   0.92540928 0.0084744435  0.014785878            4 
    9200   0.85136318   -6.5082256   0.91737079 0.0083095176  0.014717659            4 
    9300   0.88300752   -6.5037174   0.92338312 0.0082740419  0.014616953            5 
    9400   0.90068273    -6.449062   0.95722035 0.0084859956  0.014546107            5 
    9500   0.86531853   -6.4874087   0.97615553 0.0085627674  0.014490649            4 
    9600   0.90751336   -6.4925636    1.0024588 0.0087018989  0.014455414            9 
    9700   0.92048564   -6.4714404    1.0121142 0.0086951391  0.014421093            4 
    9800   0.90097534   -6.5612135    1.0444149 0.0088810783  0.014395483           15 
    9900   0.89693393   -6.4884569    1.0676276 0.0089867636  0.014389574            8 
   10000   0.90574049   -6.4209142    1.0815781 0.0090131502  0.014381714            5 
   10100   0.89699012   -6.4946774    1.0973931  0.009054398  0.014374682            3 
   10200   0.88376936   -6.5036129    1.1033175 0.0090140312  0.014358633            3 
   10300   0.92248445   -6.5231841    1.1142777 0.0090151912  0.014335745            5 
   10400   0.89487086   -6.4924084    1.1184499 0.0089619376   0.01430245            4 
   10500   0.89491607    -6.558893    1.1215792 0.0089014215  0.014251269            6 
   10600   0.85168763   -6.5281208    1.1489838 0.0090328908  0.014206561            2 
   10700   0.88226844   -6.5232057    1.1826883 0.0092109676   0.01417962            6 
   10800   0.85876304   -6.5004196    1.2019536 0.0092743326  0.014161988            5 
   10900   0.83100047   -6.5545062    1.2158818 0.0092957318  0.014139081            8 
   11000    0.8744458   -6.5533185    1.2388305 0.0093850788   0.01412337            5 
   11100   0.88064937   -6.5331185    1.2305283 0.0092382003  0.014094221            7 
   11200   0.88763524   -6.4478191      1.24356 0.0092526781  0.014054054           13 
   11300   0.86779414   -6.5198561    1.2551214 0.0092560568  0.014015219           11 
   11400   0.88915518   -6.4904153    1.2837934 0.0093844542    0.0139892            3 
   11500   0.90715629   -6.4613873    1.3160683 0.0095367266  0.013970149            2 
   11600   0.86011555   -6.4277387    1.3495765 0.0096952328  0.013975127            9 
   11700   0.86231016   -6.4897846    1.3555969 0.0096552479  0.013969866            3 
   11800   0.83101001   -6.5317795    1.3756571 0.0097150918  0.013968903            4 
   11900   0.81829711   -6.5182966    1.3900601 0.0097343141  0.013965074            5 
   12000   0.87626076    -6.508703    1.3881992 0.0096402717  0.013951712            4 
   12100   0.91642727   -6.4684274    1.4015683 0.0096526737  0.013935159            3 
   12200   0.86144196   -6.4744915    1.4142356 0.0096600789  0.013921395            2 
   12300   0.87161095   -6.5139335    1.4260579 0.0096616383  0.013903506            2 
   12400   0.92138916   -6.4959551    1.4511294 0.0097522133   0.01388898            2 
   12500   0.84352142   -6.4512623    1.4763076   0.00984205   0.01388089            2 
   12600    0.8623814     -6.53878     1.492649 0.0098720169  0.013872312            8 
   12700   0.86835669   -6.4621142    1.5475338  0.010154421  0.013880422            4 
   12800   0.87623131    -6.483358    1.5802184   0.01028788  0.013905138            6 
   12900   0.86359457   -6.5091757     1.603118  0.010356059  0.013932349            3 
   13000   0.89783376   -6.4737455    1.6191839  0.010379384  0.013963157            4 
   13100   0.89776783    -6.462943    1.6455451  0.010467844  0.013991128            5 
   13200   0.86271017   -6.4745676    1.6579108  0.010466608  0.014021378            3 
   13300    0.9047384    -6.491731    1.6726673  0.010480371  0.014049497            8 
   13400   0.91105354   -6.3963051    1.6851492  0.010479783   0.01407383            8 
   13500   0.89903866    -6.429448    1.7042958  0.010520344  0.014098911            2 
   13600   0.89942902   -6.4798766    1.7185389  0.010530263  0.014124431           14 
   13700   0.85615435   -6.4615369    1.7003302  0.010342641  0.014134853            4 
   13800   0.91953203   -6.4731899    1.7092758  0.010321713  0.014129558           10 
   13900   0.86973824   -6.4852357    1.7306202   0.01037542  0.014128661            2 
   14000   0.91528181   -6.5487991    1.7326171  0.010313196  0.014121043            3 
   14100   0.86934732   -6.4768002    1.7522963  0.010356361  0.014116073            5 
   14200   0.90365994   -6.4637123    1.7876547  0.010490931  0.014112518            5 
   14300   0.87706026   -6.4152841    1.8118059  0.010558309   0.01411782            2 
   14400   0.89685205   -6.4602918    1.8280936  0.010579245  0.014123122            2 
   14500   0.86145924   -6.4856874    1.8466414  0.010612881  0.014126515            4 
   14600   0.90514476   -6.4824951    1.8684932  0.010664915   0.01413038            1 
   14700   0.84627481   -6.4744803    1.8904451  0.010716809  0.014134089            5 
   14800   0.85927822   -6.4934287    1.8831038  0.010603062  0.014135658            2 
   14900   0.86758221   -6.5579133     1.904157  0.010649647  0.014134847            3 
   15000   0.89562753   -6.4943902    1.9293374  0.010718541  0.014135378            3 
   15100   0.82876219   -6.4499742    1.9547319  0.010787703  0.014138451            6 
   15200   0.86218336   -6.4476619    1.9630799  0.010762499   0.01414136            5 
   15300   0.87130688   -6.4901279    1.9632174  0.010692905  0.014137239           11 
   15400   0.82006689   -6.4870007    1.9668925  0.010643358  0.014128252            7 
   15500   0.90098994   -6.5905687    1.9819797  0.010655804   0.01411575           13 
   15600   0.79594946   -6.5307541    1.9870567  0.010614619   0.01410204           18 
   15700    0.8756181    -6.542435    1.9799111  0.010509082  0.014084942            8 
   15800   0.88541556   -6.5720063    1.9898565  0.010495023  0.014061649           15 
   15900   0.87403282    -6.543213    1.9994344  0.010479216  0.014037721           15 
   16000   0.88498431   -6.5111834    2.0221968  0.010532275  0.014013448           27 
   16100   0.88885818   -6.4864625     2.049978  0.010610652  0.013995125           21 
   16200   0.83586269   -6.4837204    2.0634508  0.010614459  0.013977123           10 
   16300   0.87534254   -6.4798983    2.0977873  0.010724884  0.013963499            4 
   16400   0.86677075    -6.451259     2.121113  0.010778013  0.013955494            5 
   16500   0.87385497   -6.5228038    2.1230487  0.010722468  0.013946318            7 
   16600   0.87179227   -6.5167521    2.1324871  0.010705256  0.013933817            6 
   16700   0.88393007   -6.4724323    2.1448112   0.01070265  0.013921921           10 
   16800   0.89061976   -6.4186565    2.1721073  0.010774342  0.013912677           16 
   16900   0.92132426   -6.4371775    2.1979948  0.010838238    0.0139073           11 
   17000   0.86787225   -6.4903556    2.2209272  0.010886898  0.013903288            9 
   17100   0.84841844   -6.4692354    2.2351913  0.010892745  0.013898912           15 
   17200   0.85687605   -6.5063313    2.2503566   0.01090289  0.013891745           11 
   17300   0.89490255   -6.4736192    2.2464005  0.010820811  0.013881899           14 
   17400   0.92486957    -6.478853    2.2698661  0.010871006  0.013873672           21 
   17500   0.88884796   -6.4893259    2.2389632  0.010661729  0.013857792           11 
   17600   0.89874606   -6.5250477    2.2541507  0.010673062  0.013835787            6 
   17700   0.83415453    -6.484486    2.2767551  0.010719185  0.013816915            2 
   17800   0.88112753   -6.5813976    2.2828517  0.010687508  0.013795173            9 
   17900   0.83114351   -6.4701762    2.3044886  0.010728532  0.013775115            5 
   18000   0.87190547    -6.488172    2.3263608  0.010770188  0.013758196            2 
   18100   0.92265447   -6.4571946    2.3563363  0.010848693  0.013744076            7 
   18200    0.9053824   -6.4434797    2.3704066   0.01085351  0.013732381            2 
   18300   0.88497451   -6.4866792    2.3948874   0.01090568  0.013721832            5 
   18400    0.8701594    -6.520021    2.4066766  0.010899803  0.013712734            3 
   18500   0.89596651   -6.5446725      2.40567  0.010836351  0.013699948            7 
   18600   0.89873386   -6.4721695     2.407089  0.010784448  0.013684781            4 
   18700   0.86313579   -6.4792995    2.4089981  0.010735286  0.013665878            4 
   18800   0.86806969   -6.4446455     2.410716  0.010685798  0.013645066            3 
   18900   0.86713826   -6.4945122    2.4246683  0.010690777  0.013623703            1 
   19000   0.88420569   -6.4716391     2.478308  0.010869772  0.013607752            6 
   19100   0.86776721   -6.4957889    2.5014955  0.010914029  0.013596419            4 
   19200   0.88905148   -6.5398295    2.5053604   0.01087396  0.013582631            2 
   19300   0.91672362   -6.4979421    2.5489027  0.011005624  0.013572611            4 
   19400   0.90069528   -6.4645348    2.5517335  0.010961054  0.013565942            5 
   19500   0.86898332   -6.4423301    2.5525425  0.010908301  0.013556682            4 
   19600   0.88957715   -6.4873257    2.5913166  0.011017502  0.013547817            2 
   19700   0.90994306   -6.5163497    2.6218651    0.0110908  0.013543123           10 
   19800   0.86054917   -6.4966987    2.6570801  0.011182997  0.013541247            8 
   19900   0.88296381   -6.5847247    2.6740328  0.011197792  0.013540596            6 
   20000   0.88241813   -6.4892606    2.6880357  0.011200149  0.013541505           12 
   20100    0.9036815   -6.4650252    2.7142986  0.011253311  0.013543418            6 
   20200   0.96487707   -6.4548686    2.7278984  0.011253706  0.013545272            8 
   20300   0.88775493   -6.4560591    2.7293216  0.011204112  0.013546241           13 
   20400    0.8413754   -6.4446181     2.728386  0.011145367  0.013543464            3 
   20500   0.93295698   -6.5128677    2.7242586  0.011074222  0.013537783            9 
   20600   0.87305303   -6.5411475    2.7506104  0.011127064  0.013530322            3 
   20700   0.86941662    -6.545656    2.7778929  0.011183144  0.013524164            3 
   20800   0.84796244   -6.5598039    2.8084439  0.011251778   0.01351934            5 
   20900   0.86361999   -6.5164296    2.8140346  0.011220233  0.013513637            8 
   21000   0.88180331   -6.4716741     2.815872  0.011174095  0.013508007            2 
   21100   0.82162877   -6.5069519    2.8399359  0.011216176  0.013501865            2 
   21200   0.88907573   -6.5288674    2.8421558  0.011171996  0.013496253            3 
   21300   0.88601597   -6.4741793    2.8556082  0.011172176  0.013490702            4 
   21400   0.92041353   -6.4440309    2.8878958    0.0112457  0.013486878            5 
   21500   0.86465612   -6.3961228    2.8855341  0.011184241  0.013483718            6 
   21600   0.88474112   -6.5108353    2.8827789  0.011121832   0.01347469            6 
   21700   0.91263833   -6.5618738     2.882483  0.011069443   0.01346475           11 
   21800    0.8555493   -6.5169492    2.8803098  0.011010358   0.01345328            6 
   21900   0.91598198    -6.479824     2.899438  0.011032869  0.013442916            7 
   22000   0.86532042   -6.5145654    2.9342291  0.011114504  0.013433186           10 
   22100   0.87968579   -6.5200618    2.9890986  0.011271111  0.013426829            4 
   22200   0.87422531   -6.5336887    3.0070774  0.011287828  0.013422759            4 
   22300    0.8505152   -6.5248872    3.0348453  0.011340976  0.013418087            2 
   22400   0.90106191   -6.5141721    3.0501006    0.0113471  0.013416159            1 
   22500   0.86411456   -6.4617751    3.0539605  0.011310965  0.013414326            1 
   22600    0.8780755   -6.5350383     3.052482  0.011255464  0.013410435            1 
   22700   0.89015039   -6.4744307    3.0831071  0.011318308    0.0134051            3 
   22800   0.87788589   -6.4307612    3.0944631  0.011310172  0.013401782            2 
   22900   0.95045173   -6.4987735    3.1166533  0.011341533  0.013397848            3 
   23000   0.87339141   -6.4833257    3.1049084  0.011249668  0.013394127            4 
   23100   0.87784698   -6.4416897    3.1364247  0.011314663  0.013388105            5 
   23200   0.90696007   -6.4669732    3.1632829  0.011362366  0.013384618            2 
   23300   0.86724624   -6.4991398    3.2265957  0.011540042  0.013384234            4 
   23400   0.84947727   -6.4916755    3.2031465  0.011407217  0.013383647            2 
   23500   0.86777398   -6.5539361    3.1940254  0.011326331  0.013378738            2 
   23600    0.8386652   -6.4825504    3.1930916  0.011275041  0.013371675            2 
   23700   0.87550138   -6.5170998    3.2381087  0.011385755    0.0133657            4 
   23800   0.92407972    -6.495514    3.2620769  0.011421838  0.013362947            7 
   23900   0.87549099   -6.4583348     3.267344  0.011392413  0.013359751            7 
   24000   0.84869622   -6.4996628    3.2955096  0.011442741  0.013357674            5 
   24100   0.88206584   -6.5267588    3.3034828  0.011422831  0.013355382            7 
   24200    0.8957098       -6.523    3.3390953  0.011498262  0.013354116            7 
   24300   0.88783411   -6.4613849    3.3775063  0.011582669  0.013353817            6 
   24400   0.86115045   -6.5130848    3.3858511  0.011563699  0.013355186            2 
   24500   0.82389703    -6.468541    3.3984245  0.011559267  0.013355225            2 
   24600    0.8955219   -6.4318571      3.40729   0.01154231  0.013355457            1 
   24700   0.87393079   -6.4880575    3.4261494  0.011559208  0.013356038            3 
   24800    0.8525136    -6.472732    3.4363653  0.011546926  0.013356941            4 
   24900   0.89129117   -6.4225916    3.4412644  0.011516949  0.013356489            1 
   25000   0.89003585    -6.443504    3.4719799  0.011573266  0.013356867            4 
   25100    0.8888132   -6.5279127    3.4844817  0.011568664  0.013357719            3 
   25200    0.9023775   -6.5748618    3.5158648  0.011626537  0.013358278            8 
   25300   0.88273417   -6.4916131    3.5184454  0.011589082   0.01335824            6 
   25400   0.89900656   -6.4675259    3.5104006  0.011517062  0.013357038            6 
   25500    0.9014983   -6.5182252    3.5162892  0.011491141    0.0133545            2 
   25600   0.90046887   -6.4760034    3.5482969  0.011550445  0.013352682            2 
   25700   0.86699269     -6.49632    3.5687129  0.011571702  0.013353476            1 
   25800   0.87587057   -6.4858304    3.5848036  0.011578823  0.013353277            8 
   25900   0.91737787   -6.4759963    3.6153349  0.011632351   0.01335439            7 
   26000   0.87180292   -6.4991124    3.6376294  0.011659068  0.013354922            4 
   26100   0.90399566   -6.5450089    3.6525893  0.011662162  0.013355595            4 
   26200   0.87219675   -6.5383887    3.6465008  0.011598285  0.013355864           11 
   26300   0.92781996   -6.5273083    3.6812094  0.011664161  0.013355579            8 
   26400   0.87195674   -6.5051197    3.7077263  0.011703681  0.013356521            6 
   26500   0.88611227   -6.5307683     3.735638  0.011747289  0.013357958            3 
   26600   0.87746875   -6.4899628    3.7400776  0.011717035  0.013359071            2 
   26700   0.86576538   -6.5078081     3.764592  0.011749663  0.013360622            6 
   26800   0.86110556   -6.4971395    3.7842929   0.01176708  0.013363159            4 
   26900   0.88925983   -6.4596728    3.7839525  0.011722281   0.01336403            4 
   27000    0.8562866   -6.5099093    3.7369805   0.01153389  0.013361865            7 
   27100   0.87757565   -6.5015176    3.7301278  0.011470257  0.013355578            3 
   27200    0.9036751   -6.4581737    3.7773757  0.011572842  0.013350631            7 
   27300     0.878415   -6.4173682     3.848632  0.011747961  0.013348577            6 
   27400   0.87056473   -6.5131447    3.8620617   0.01174593  0.013348297            2 
   27500   0.87939012   -6.5131113    3.8410951  0.011639682  0.013346553            6 
   27600   0.87584324   -6.4720362    3.8472958  0.011616231  0.013343186            8 
   27700   0.82666135   -6.5058578     3.842331  0.011559359  0.013337704            6 
   27800   0.87894411   -6.5024485     3.903331  0.011700632  0.013334119            9 
   27900   0.83633651   -6.4977281    3.9659503  0.011845729   0.01333437            8 
   28000   0.87170886   -6.5352495    3.9644474   0.01179895  0.013335615            2 
   28100   0.88548188   -6.4602842    3.9431147  0.011693697  0.013335176            2 
   28200   0.87044218   -6.4487517    3.9562687  0.011691101  0.013333639            3 
   28300   0.91830791   -6.4664715    3.9694429  0.011688583  0.013332168            7 
   28400   0.89579409   -6.5213659    3.9607763  0.011621996  0.013329267            2 
   28500   0.89966878   -6.4995518    3.9640019  0.011590649  0.013325055            3 
   28600     0.901917   -6.4009145    4.0043089  0.011667567  0.013322467            2 
   28700    0.8802029   -6.4230333    4.0145211  0.011656565  0.013319862            7 
   28800   0.89997626   -6.4420993     4.055146   0.01173364  0.013318913            5 
   28900   0.90839298   -6.4674494    4.0544549  0.011691046  0.013317582            3 
   29000   0.90493736   -6.4670925    4.0953954  0.011768377  0.013318013            4 
   29100   0.89899159   -6.4913002    4.1138432  0.011780765  0.013318331            6 
   29200   0.87112819   -6.4962498    4.1274037   0.01177912   0.01331813            9 
   29300   0.88588632   -6.4561666    4.1512978  0.011806876  0.013318216            5 
   29400   0.87331151   -6.4150094    4.1882269  0.011871391  0.013319258            7 
   29500    0.9274172   -6.4669112    4.1788674   0.01180471   0.01332082            7 
   29600   0.88086854   -6.4867937    4.2026213  0.011831704  0.013320996           10 
   29700   0.92407345    -6.465626    4.2227065  0.011848222  0.013322178            7 
   29800   0.89623207   -6.4130268    4.2312159  0.011832259  0.013323521           15 
   29900   0.89552094   -6.4795316    4.2058708  0.011722048  0.013322437            6 
   30000    0.8533596   -6.4618345    4.2290777  0.011747438  0.013320616            8 
   30100   0.87519919   -6.4935892    4.2405081  0.011740055   0.01331881            5 
   30200   0.87806725   -6.5564509    4.2486371  0.011723612  0.013316307            2 
   30300   0.88908271    -6.497969    4.2583384  0.011711602  0.013313347            2 
   30400   0.90545592   -6.4820582    4.2946687  0.011772666  0.013310776            3 
   30500   0.90608319   -6.5710271    4.3212997   0.01180683  0.013309851            6 
   30600   0.87546357   -6.5142917    4.3467668    0.0118376  0.013308241            5 
   30700   0.88523788   -6.4910692    4.3599584  0.011834849  0.013307683            4 
   30800   0.91712719   -6.5045206    4.4003273  0.011905647  0.013308455            4 
   30900   0.88450449   -6.5260774    4.4035365  0.011875772  0.013310705            2 
   31000   0.89274903   -6.4491269    4.4268782   0.01190021  0.013311689            2 
   31100   0.90649342   -6.4741891    4.4533622   0.01193291  0.013313638            3 
   31200   0.92590489   -6.4231781    4.4512027  0.011888896  0.013314464            1 
   31300   0.89201686   -6.4901011    4.4736793  0.011910754  0.013314958            2 
   31400   0.89963705   -6.5695846     4.475695  0.011878171  0.013314249            2 
   31500   0.84766122   -6.5426765    4.4676713  0.011819236  0.013311913            4 
   31600   0.87393901   -6.4622314    4.4567383  0.011753002  0.013307791            5 
   31700   0.85794349   -6.4888831    4.4738787  0.011760985  0.013304345            2 
   31800   0.87917853   -6.5525583    4.4668712  0.011705637  0.013299478            4 
   31900   0.87456317   -6.4338599    4.4944995  0.011741117  0.013294741            1 
   32000    0.8439453   -6.4172297    4.5542417  0.011860004   0.01329226            1 
   32100   0.89715147   -6.3778301    4.5921412  0.011921446  0.013292117            2 
   32200   0.88564525   -6.4573508    4.5901651  0.011879309  0.013292102            3 
   32300    0.8842732   -6.4748698    4.6156478  0.011908276  0.013291152            2 
   32400   0.90676038   -6.4204989    4.6623601  0.011991667  0.013290918            2 
   32500   0.89020589   -6.4328272    4.6660011  0.011964105  0.013291072            1 
   32600   0.88360555   -6.4828176    4.6980756  0.012009396  0.013292605            1 
   32700    0.8093602   -6.4739013    4.7287323  0.012050796  0.013294226            6 
   32800   0.89229505   -6.5272373     4.748502  0.012064283  0.013296098            4 
   32900   0.90212314    -6.476885    4.7606268  0.012058325   0.01329833            3 
   33000   0.82875243   -6.4566874    4.7484691  0.011991083  0.013300721            3 
   33100   0.90043263   -6.4877517    4.7585692  0.011980285  0.013301662            6 
   33200   0.89924791   -6.4947758    4.7931251  0.012030936   0.01330249            4 
   33300   0.89278029   -6.5430529    4.8250413  0.012074678  0.013305192            7 
   33400   0.84214943   -6.5245047     4.835367  0.012064289  0.013306997           11 
   33500    0.8839728   -6.5075172    4.8786108  0.012135847  0.013310128            5 
   33600   0.91719388   -6.4957264    4.8857556  0.012117449  0.013314628            4 
   33700   0.92043178   -6.5415172    4.9116341  0.012145485  0.013319126            3 
   33800   0.85359923   -6.4987518    4.9638412  0.012238267  0.013324446            6 
   33900   0.87894024   -6.4425274    4.9984115  0.012287147  0.013330547            2 
   34000   0.85926017    -6.472673    5.0313082  0.012331637   0.01333748            3 
   34100   0.86162535   -6.5889166    5.0502477  0.012341759  0.013344645            3 
   34200   0.85232895   -6.5257856    5.0906489  0.012404115  0.013352047            5 
   34300   0.89013705   -6.5183703    5.1894153  0.012607909  0.013362611            4 
   34400   0.86806175   -6.4282274    5.2115793   0.01262495  0.013374707            4 
   34500   0.88916583   -6.5036013     5.242846  0.012663879  0.013386361            4 
   34600   0.85565092   -6.4844251    5.2502263  0.012645054  0.013398554            6 
   34700   0.86034459    -6.438949    5.2897333   0.01270349  0.013410977            5 
   34800   0.90913972   -6.4381673    5.3372335  0.012780731  0.013425255            4 
   34900   0.83839627   -6.4265783    5.3677108  0.012816883  0.013440023            5 
   35000   0.85937392    -6.433249    5.3500289  0.012738164  0.013454184            4 
   35100   0.90901933   -6.4437035    5.3640369   0.01273513  0.013467925           11 
   35200   0.89184686   -6.4678431    5.3783261  0.012732779  0.013481195            5 
   35300   0.87657389   -6.5104253    5.3929647  0.012731267  0.013493986            4 
   35400   0.89482588   -6.4488274    5.4807817  0.012902028  0.013508563            3 
   35500   0.89381429   -6.4445818    5.5142569  0.012944265  0.013525182            2 
   35600   0.89645094    -6.513723    5.4763908  0.012819267  0.013540283            3 
   35700   0.90095469   -6.4778981    5.4985649  0.012835119   0.01355439            2 
   35800   0.88666853   -6.4249022    5.5496985  0.012918292  0.013569692            2 
   35900   0.89179813   -6.4573913    5.5605201  0.012907428  0.013585107            2 
   36000   0.85447829    -6.486539    5.5419544  0.012828598  0.013598523            1 
   36100   0.90104955   -6.4872684    5.5700777  0.012857982   0.01361155            1 
   36200   0.85660897   -6.5066616     5.593325  0.012875978  0.013623522            5 
   36300     0.853898   -6.5053874    5.5915538  0.012836441  0.013634601            2 
   36400   0.89004478   -6.4805258    5.6536338  0.012943301  0.013646664           10 
   36500   0.85750076   -6.4519461    5.7208221  0.013061238  0.013660897            5 
   36600   0.87837145   -6.4736835    5.6912012  0.012958108  0.013674771            4 
   36700   0.85273728   -6.5065466     5.667849  0.012869775  0.013686086            6 
   36800   0.87131775   -6.4718909    5.6829764  0.012869059  0.013697257            2 
   36900   0.86576764    -6.473634    5.6882313  0.012846051   0.01370748            2 
   37000   0.90765941   -6.4918631    5.6949177  0.012826391  0.013717524            5 
   37100   0.87529176   -6.5358239    5.7467981  0.012908351  0.013728538            5 
   37200   0.86949517   -6.4568675    5.7854901  0.012960327  0.013740136            2 
   37300   0.86888623   -6.4306619    5.8263283  0.013016819   0.01375219            6 
   37400   0.92111827    -6.426156     5.869111  0.013077342  0.013764936            5 
   37500    0.8645144   -6.4389108    5.8809726  0.013068828  0.013778265            3 
   37600   0.89628084   -6.4450681    5.8608298  0.012989428   0.01379149            6 
   37700   0.87021401   -6.5171497    5.8650543  0.012964311  0.013802386            4 
   37800   0.87250245   -6.5013147    5.8934789  0.012992678    0.0138129            3 
   37900   0.89180775   -6.4676624    5.9649227  0.013115485  0.013825309            1 
   38000   0.88619083   -6.4347263    5.9501718  0.013048622  0.013837448            3 
   38100    0.8851452   -6.5542627    5.9693413  0.013056302  0.013848269            2 
   38200   0.86795832   -6.4717977    6.0215311  0.013135975  0.013860363            2 
   38300   0.86604151   -6.4337638    6.0529279  0.013169991  0.013873513            2 
   38400   0.91592635   -6.4206266     6.056641  0.013143752    0.0138861            3 
   38500   0.90768719   -6.4213902    6.0687686  0.013135863  0.013899299            2 
   38600    0.8715946   -6.4956268     6.053306   0.01306845  0.013910669            5 
   38700   0.88770016   -6.4342299    6.0418727  0.013010062  0.013920624            5 
   38800   0.94831848   -6.4634979    6.0553728  0.013005526  0.013929859            2 
   38900   0.88042257   -6.4556525    6.0403336  0.012939875  0.013938039            2 
   39000   0.87397756   -6.4695064    6.0701517  0.012970409  0.013945433            2 
   39100   0.90415576   -6.4359584    6.1149881  0.013032796  0.013953975            3 
   39200    0.9392591   -6.4723254    6.1558594  0.013086436  0.013964237            2 
   39300   0.86516806   -6.4478044    6.1186128  0.012974158  0.013972723            3 
   39400   0.89169421    -6.502307    6.1390641  0.012984484  0.013979736            4 
   39500   0.90566457   -6.4381102    6.1630589  0.013002234  0.013986915            4 
   39600   0.87715636   -6.4799754    6.1744952  0.012993466  0.013994445            3 
   39700   0.88650753   -6.4908139    6.1609645  0.012932335  0.014000842            2 
   39800   0.93950461   -6.5388768    6.1627068   0.01290349  0.014006943            3 
   39900   0.87806274   -6.5002575    6.1921076  0.012932555  0.014012649            3 
   40000   0.87281923   -6.5129574    6.2032425  0.012923422   0.01401782            3 
   40100   0.91695895   -6.4936788    6.2753891  0.013041124  0.014024417            3 
   40200    0.9064927   -6.4909604    6.2965584  0.013052567  0.014031883            4 
   40300   0.88824836   -6.5276155     6.287205  0.013000837  0.014038666            1 
   40400   0.89021581   -6.4726971    6.2919981  0.012978544  0.014044707            3 
   40500   0.88623056   -6.4376978    6.3193748  0.013002829  0.014050329            4 
   40600   0.86491426   -6.4703448    6.3359732  0.013004871  0.014056898            6 
   40700   0.92063438   -6.4931787    6.3904709  0.013084502  0.014063793            8 
   40800   0.87312095    -6.513593    6.4353324  0.013144061  0.014071824           10 
   40900   0.83226613   -6.5165897    6.4140486  0.013068558   0.01407867            5 
   41000   0.89052704   -6.5177572    6.4331855   0.01307558  0.014084537            8 
   41100   0.88524875   -6.4712005    6.4878323  0.013154567  0.014091499            4 
   41200   0.89504483   -6.4870258    6.4798294  0.013106451  0.014098203            4 
   41300   0.84994834   -6.5049103    6.4726098  0.013060149  0.014103743            2 
   41400   0.90744906    -6.524192    6.5091721  0.013102198  0.014109114            6 
   41500   0.87200818   -6.4349916    6.5224139  0.013097217  0.014114749            4 
   41600   0.86923553   -6.4706891    6.5119491   0.01304477  0.014119937           14 
   41700   0.84995715   -6.4733775    6.5001994  0.012990007  0.014124108            9 
   41800   0.92859041   -6.5108054    6.5153714  0.012989177  0.014128432           10 
   41900   0.83908324   -6.4960247     6.542794  0.013012717  0.014132443            5 
   42000   0.87581146   -6.5497309     6.598237   0.01309174  0.014136686            8 
   42100   0.90423252    -6.519302    6.5720723  0.013008852  0.014140659           12 
   42200   0.87644255   -6.5533333    6.5442902  0.012923164  0.014143275            5 
   42300   0.89096369    -6.549652    6.5671794  0.012937705  0.014145285            5 
   42400   0.85991977   -6.4904526    6.6077288  0.012986888  0.014147987            6 
   42500   0.91565143    -6.459466    6.5782113  0.012898453  0.014150095            4 
   42600   0.88714361   -6.4934126    6.5733478  0.012858662  0.014151402            3 
   42700   0.90383455   -6.4991491    6.5586533   0.01279987  0.014152248            3 
   42800   0.85912625   -6.5266249    6.5804346  0.012812372  0.014152003            7 
   42900   0.93158487   -6.5198145    6.6140073  0.012847722  0.014152213            7 
   43000   0.85872648   -6.4968424    6.6719342  0.012930105  0.014153323            5 
   43100   0.88481461   -6.5527155    6.6681044    0.0128927  0.014154943            5 
   43200   0.90417479   -6.5388847    6.6412781  0.012811107  0.014155862            7 
   43300   0.85992128   -6.5550909     6.666537  0.012830133  0.014156366            9 
   43400   0.89174133   -6.5017746    6.6715557  0.012810207  0.014156013            7 
   43500   0.92628653   -6.5343191    6.7368727  0.012905886  0.014156824            7 
   43600   0.89408093   -6.5523173    6.7223852  0.012848595  0.014157861           10 
   43700     0.936083   -6.5034311    6.7348436  0.012842951  0.014158226            3 
   43800   0.88176856   -6.4870059    6.7632143  0.012867607  0.014158898            9 
   43900   0.86204642   -6.4824572     6.786861  0.012883183  0.014159656           10 
   44000   0.86017571   -6.5348586     6.759376  0.012801848  0.014159934            8 
   44100   0.89460545   -6.5303935    6.8115764  0.012871459  0.014160211            6 
   44200   0.89988266   -6.4785604    6.8432957  0.012902141  0.014160981            5 
   44300   0.89237725   -6.4439399    6.8398053  0.012866451  0.014161995            3 
   44400   0.90756594   -6.5706017    6.8346464   0.01282779  0.014162327            4 
   44500   0.87760705    -6.563184    6.8907601  0.012904045  0.014162385            9 
   44600   0.85843066   -6.5262039    6.9117774  0.012914382  0.014162476           18 
   44700   0.90506317   -6.5316752     6.904077  0.012871135  0.014162361           13 
   44800   0.88715811   -6.5691697    6.8883905  0.012813226  0.014161681            9 
   44900   0.86768598   -6.5559562    6.9132574  0.012830841   0.01416028            8 
   45000   0.86205727   -6.5037529    6.9375273  0.012847273  0.014159512           17 
   45100   0.88857805   -6.5064156    6.9616798  0.012863414   0.01415896           23 
   45200   0.83850562   -6.5269829    6.9526921  0.012818385  0.014158101           16 
   45300   0.88345335    -6.556266    6.9662199  0.012814974  0.014156629           29 
   45400   0.90229479   -6.4807038    6.9208148  0.012703404  0.014154691           35 
   45500   0.90484609   -6.5622592    6.8882603  0.012615861  0.014151313           24 
   45600   0.89561214   -6.5693111    6.8921268  0.012595261  0.014146875           15 
   45700   0.89026086   -6.4737397    6.9595182  0.012690587  0.014142972           17 
   45800   0.90706255   -6.5010883    6.9361694  0.012620395   0.01414005            9 
   45900   0.89204273   -6.5454709    6.9417918  0.012603108  0.014135834           16 
   46000   0.84576957   -6.4736497    6.9734778  0.012633112  0.014131675           18 
   46100   0.92603529   -6.5129957    7.0832487  0.012804137  0.014128752           13 
   46200   0.84773033   -6.4836721    7.0884211  0.012785752  0.014126774            6 
   46300   0.86023934   -6.5422946    7.1171275  0.012809805  0.014124263            4 
   46400    0.9113106   -6.5664993    7.0816575  0.012718494  0.014121845            8 
   46500   0.86253281   -6.5382121    7.0929966  0.012711463  0.014118607           14 
   46600   0.86757655   -6.4981259    7.0541178   0.01261466  0.014114477           11 
   46700   0.90357413   -6.4620967    7.0734436  0.012622133  0.014110427            8 
   46800   0.87022388    -6.505545    7.0889967  0.012622857  0.014106248           28 
   46900   0.83733847   -6.4321945    7.1060705   0.01262628  0.014101624           17 
   47000   0.90361114   -6.5194475    7.1289247  0.012639937  0.014097094           20 
   47100    0.8665073   -6.5132973    7.1247058  0.012605636  0.014092438           12 
   47200   0.91435422   -6.5183814    7.0823874  0.012504215  0.014086992           14 
   47300   0.88077461   -6.4673691     7.155793  0.012607105  0.014081605            7 
   47400   0.82195302   -6.4584431    7.1456522   0.01256268   0.01407695           10 
   47500   0.86503411   -6.4735346    7.1492957  0.012542624  0.014071748            7 
   47600   0.88494207   -6.5379757    7.1777722  0.012566128  0.014066399           14 
   47700   0.85719786   -6.4928387    7.1951613  0.012570163  0.014061394            8 
   47800   0.92061103   -6.4693074    7.2018847  0.012555587  0.014056583            8 
   47900   0.88711934   -6.4989305    7.1933383  0.012514506  0.014051452            3 
   48000   0.86399889   -6.4975522    7.1762368  0.012458744  0.014045549           12 
   48100   0.88734315   -6.4154641    7.2092636  0.012490062  0.014039963            5 
   48200   0.91121003   -6.5099089     7.252399  0.012538726   0.01403534           10 
   48300   0.84553491   -6.5264449    7.2361493  0.012484729  0.014029694            9 
   48400   0.85313203   -6.4885209    7.3020626  0.012572422  0.014024264            4 
   48500   0.91579889   -6.5207888    7.3303253  0.012595061  0.014019811            7 
   48600   0.88344486   -6.4960222     7.358309  0.012617128   0.01401575           13 
   48700   0.88548847   -6.4921516    7.3362139  0.012553412  0.014011568            3 
   48800   0.85084221   -6.5240029    7.3462856  0.012544886  0.014006589            3 
   48900   0.89834329   -6.4983107    7.3599409  0.012542503   0.01400109            3 
   49000   0.87738967   -6.4740588    7.4291943  0.012634684  0.013996681            2 
   49100   0.82798562   -6.4903933    7.4650218  0.012669759  0.013993057            5 
   49200   0.89167996   -6.4751314    7.4912963   0.01268851  0.013989631            5 
   49300   0.87392062   -6.4813337     7.506675  0.012688768  0.013986212            6 
   49400   0.84532453   -6.5058408    7.4581405  0.012581208  0.013982018            9 
   49500   0.84249599   -6.4329745    7.4684194  0.012573096  0.013977896           15 
   49600    0.8872512   -6.4131614     7.516636  0.012628757   0.01397472           14 
   49700   0.86024863   -6.4353456    7.5280734  0.012622524  0.013971214            5 
   49800   0.84092661   -6.5328005     7.542807  0.012621832    0.0139675            4 
   49900   0.86979261   -6.5121863    7.5322561  0.012578918  0.013963041            4 
   50000   0.93668342   -6.5213556    7.5622049  0.012603675   0.01395922            4 
   50100   0.89383523    -6.453174    7.5815291   0.01261066  0.013956078            3 
   50200   0.94211432    -6.433594    7.5983409  0.012613448  0.013952571            4 
   50300   0.92879493   -6.4197618    7.6378343  0.012653801  0.013949692           11 
   50400   0.87891168   -6.4579251    7.6456163  0.012641561  0.013946409            6 
   50500   0.86087878    -6.513449    7.6010827  0.012543041   0.01394212            8 
   50600   0.88733427   -6.5294733    7.6607871  0.012616579  0.013937652           11 
   50700   0.87246716   -6.4765179    7.7080043  0.012669303  0.013934199           10 
   50800   0.83817277   -6.5135552    7.7337007  0.012686517  0.013931076            3 
   50900   0.88182192   -6.5165806    7.7818563  0.012740433  0.013928269            3 
   51000   0.87512403   -6.4730498      7.83485  0.012802042  0.013926735            2 
   51100   0.92087134   -6.4719789    7.8219342  0.012755927   0.01392556            2 
   51200   0.89415559   -6.4884069    7.8744915  0.012816555  0.013924674            3 
   51300   0.82907478   -6.4896492    7.9146291  0.012856772   0.01392427            4 
   51400    0.9195223   -6.5032501    7.9350443  0.012864858  0.013924085            1 
   51500    0.8978234    -6.426809    7.9513988  0.012866341  0.013924246            2 
   51600   0.90853851   -6.4582243    7.9906578  0.012904809  0.013924458            1 
   51700    0.9090703   -6.4811041     7.981011  0.012864299  0.013924619            6 
   51800   0.88458758   -6.4827167    8.0089967  0.012884486  0.013924608            5 
   51900   0.88043659   -6.5258174    8.0627136  0.012945911  0.013924736            3 
   52000   0.90819847   -6.4773563    8.1106296  0.012997804  0.013925482            4 
   52100   0.85058456   -6.4505814     8.060026  0.012891916  0.013925594            2 
   52200   0.86295737   -6.5480027     8.102108    0.0129344  0.013925149            1 
   52300   0.88081946   -6.5195759    8.0934109  0.012895811  0.013924589            3 
   52400   0.92748102   -6.5230928    8.1726494  0.012997216  0.013924927            3 
   52500    0.8750677   -6.4796575    8.1438107  0.012926684   0.01392545            2 
   52600   0.91390912   -6.4529272    8.1326227  0.012884383  0.013925529            3 
   52700   0.88697747   -6.4933565    8.1336954  0.012861631  0.013925357            2 
   52800   0.88842667   -6.4227046    8.1659365  0.012888157  0.013924744            5 
   52900   0.89346675   -6.4664722    8.1884659  0.012899285  0.013924455            7 
   53000   0.86957004   -6.4563466    8.1655813  0.012838964  0.013923555            5 
   53100   0.89893275   -6.5010434    8.1576681  0.012802367  0.013922153            3 
   53200   0.82891368   -6.4373325    8.1768417  0.012808336  0.013920667            7 
   53300   0.87809437   -6.4465008    8.2675744  0.012926164  0.013919934            5 
   53400   0.86558717   -6.4659766    8.2843559  0.012928146  0.013919729            6 
   53500   0.86877111   -6.5352578    8.2668892  0.012876774  0.013918916            8 
   53600   0.88461176   -6.4887428    8.2908194  0.012889955  0.013918033           13 
   53700   0.85006066   -6.5503008    8.3613766  0.012975445  0.013917628            9 
   53800    0.8104152    -6.489345    8.3327242  0.012906946   0.01391666            4 
   53900    0.8719337   -6.4530605    8.3610967  0.012926866  0.013916197            7 
   54000   0.89028956   -6.5026571    8.3731367  0.012921507  0.013915812           10 
   54100   0.86070362    -6.550732     8.378274  0.012905536  0.013915218            9 
   54200   0.89989979   -6.5393358    8.3731784   0.01287389  0.013914584           24 
   54300   0.89752551   -6.4815286    8.4347158  0.012944622  0.013913645           14 
   54400   0.87110024   -6.4709948    8.4319202  0.012916544  0.013913278           15 
   54500    0.8779246   -6.5621033    8.4016892  0.012846619  0.013911685           13 
   54600   0.86133465   -6.5331384    8.4145821  0.012842769  0.013910192            7 
   54700   0.88192717   -6.5100449    8.3949213  0.012789338  0.013907926            8 
   54800   0.87305378   -6.4821392    8.3783899   0.01274086  0.013905452           21 
   54900   0.89259145    -6.465735    8.4654002  0.012849727  0.013903654           16 
   55000   0.89833889   -6.5300125    8.4921978  0.012866966  0.013902559           18 
   55100   0.88285834   -6.5413113    8.4939764  0.012846304  0.013901276           20 
   55200   0.90800789   -6.4837155    8.4945274  0.012823864  0.013899886           11 
   55300   0.85930012   -6.4712702    8.4855759  0.012787185  0.013898404           15 
   55400   0.90494119   -6.5389196    8.4846492  0.012762709  0.013896392           12 
   55500    0.8714541   -6.5292774    8.5254475  0.012800972  0.013894396           12 
   55600   0.91443278   -6.5093382    8.5368674  0.012795065  0.013892596           10 
   55700   0.87448745   -6.5535093    8.5479357  0.012788653  0.013890948            5 
   55800   0.88746544   -6.5592102    8.6021295  0.012846669  0.013889311            4 
   55900   0.83699439   -6.4989411    8.6171201  0.012846035  0.013887782            3 
   56000    0.8971803   -6.5636783    8.6620739  0.012889991  0.013886507            8 
   56100    0.8887984   -6.5679205    8.6584743  0.012861667  0.013885568            3 
   56200   0.87286754   -6.5688835    8.6804003  0.012871293  0.013884373            5 
   56300   0.88132022   -6.5168155    8.6949496  0.012869967  0.013883451           13 
   56400   0.87103568   -6.5112905    8.7084636  0.012867115  0.013882396            5 
   56500   0.91660782   -6.4819139    8.7457957  0.012899404  0.013881933            8 
   56600   0.88551455   -6.4903665    8.7677333  0.012908912  0.013881403           19 
   56700    0.8700315   -6.5171794    8.7710697  0.012891049  0.013880636            9 
   56800   0.91870922   -6.4752971    8.8151108  0.012932968  0.013880074           13 
   56900   0.88989213   -6.4571908    8.8492531  0.012960242  0.013880394           16 
   57000    0.8759457    -6.515434    8.8077756  0.012876865  0.013879905            8 
   57100   0.90945681   -6.5661257    8.7602442  0.012784945  0.013878453            8 
   57200   0.87053889   -6.5624538    8.7526994  0.012751602   0.01387613            7 
   57300   0.88815591   -6.5759138    8.7545364  0.012732019  0.013873284            5 
   57400   0.88363791   -6.5541904    8.7866946  0.012756525   0.01387061            3 
   57500   0.88023451   -6.5252178    8.8020492  0.012756593  0.013868144            5 
   57600   0.89313278   -6.4713704    8.8022045  0.012734671  0.013865779            6 
   57700   0.89868618   -6.5172236      8.84732  0.012777758  0.013863439            5 
   57800   0.89177182   -6.6070533     8.776109  0.012652983  0.013860429           14 
   57900   0.89592791   -6.5389988    8.8099024  0.012679767  0.013857138           10 
   58000   0.90468837   -6.4992949    8.8047583  0.012650515  0.013854055            5 
   58100   0.91561096   -6.5167524    8.8338397  0.012670453  0.013851065            8 
   58200   0.87868274    -6.480567    8.7986756  0.012598333  0.013847805            6 
   58300   0.90407556   -6.5316336    8.8120052  0.012595776  0.013843836           16 
   58400   0.90126123   -6.5068224    8.8095982  0.012570774  0.013839735           29 
   58500   0.87334873   -6.4790776    8.8119629  0.012552654  0.013834971           34 
   58600   0.89624927    -6.530557    8.8285263  0.012554787  0.013830219           22 
   58700   0.86396135   -6.5392016    8.8154822  0.012514881  0.013824804            9 
   58800   0.86994315   -6.5306387     8.840348  0.012528838  0.013819185            4 
   58900    0.8578709   -6.5276798    8.8405723  0.012507884  0.013813449           12 
   59000   0.88497158   -6.5375477    8.8182429  0.012455145  0.013807755           10 
   59100   0.87240575   -6.4819287    8.8425456  0.012468338  0.013802067            3 
   59200    0.8818932   -6.5495986    8.8266796  0.012424943  0.013796283            6 
   59300   0.85854044   -6.5514422    8.7991863  0.012365354  0.013789739            5 
   59400   0.89356111   -6.5161421    8.8455149  0.012409533  0.013783403            6 
   59500    0.8970364   -6.5227673    8.9057345  0.012473017  0.013777706            7 
   59600   0.91511727   -6.5658035    8.8602955  0.012388556  0.013772095            4 
   59700   0.88962485   -6.4564095    8.9089061  0.012435659  0.013766553            4 
   59800   0.91966238   -6.5371195    8.9365706  0.012453415   0.01376133            7 
   59900   0.88059747   -6.5961971    8.9085505  0.012393643  0.013755159            6 
   60000   0.89643263   -6.6002235    8.8889873  0.012345816  0.013748655            9 
   60100   0.89680898   -6.4981913     8.911691  0.012356754   0.01374206            7 
   60200   0.89189859   -6.5219993    8.8932355   0.01231068  0.013735176            7 
   60300   0.81168898   -6.4889617    8.9210259   0.01232867  0.013727917            4 
   60400   0.86826235   -6.4834124    8.9379546  0.012331615  0.013720936            5 
   60500   0.91517477   -6.4652775    8.9574312  0.012338059  0.013714348            7 
   60600   0.92426101   -6.4503192    8.9819633  0.012351435  0.013708041           11 
   60700   0.88292018   -6.4832857    8.9825749  0.012331926  0.013701809            8 
   60800   0.84888358   -6.5028991    8.9982867  0.012333178   0.01369534            5 
   60900   0.92095973   -6.5155116    9.0538595   0.01238897  0.013688996            6 
   61000   0.88532949   -6.5076385    9.0525188  0.012366829   0.01368299            2 
   61100   0.85342351   -6.5279297    9.0003776  0.012275474  0.013676299           11 
   61200   0.87407851   -6.4850607    8.9928815  0.012245209  0.013669261            4 
   61300   0.88932385   -6.4420613    9.0840241  0.012349135  0.013663082            7 
   61400    0.9132376   -6.4942836     9.134313  0.012397276  0.013657679            4 
   61500   0.89900507   -6.5016778    9.0915013  0.012319107  0.013651904            6 
   61600   0.87335017   -6.5206549    9.1039185  0.012315907  0.013645963            8 
   61700   0.85305063   -6.5516169    9.1603581  0.012372175  0.013639772            6 
   61800    0.8506747   -6.4711875    9.1961948  0.012400478  0.013634149           13 
   61900   0.85442491   -6.4845991    9.2396413  0.012438935  0.013628662           10 
   62000      0.84844   -6.5315122    9.1979432  0.012362827  0.013622977           16 
   62100   0.86156121   -6.4670051    9.2877497  0.012463432  0.013617331            6 
   62200   0.90262092   -6.4632535    9.2661627  0.012414473  0.013612166            6 
   62300   0.85161676   -6.4892443    9.2341879  0.012351776  0.013606305            4 
   62400   0.89369585    -6.475846    9.2280445  0.012323777  0.013600079            6 
   62500   0.86001842   -6.5105341    9.2341924  0.012312256  0.013593821            7 
   62600   0.84559782   -6.4751451    9.2633375  0.012331386  0.013587494            1 
   62700   0.88445109    -6.490847    9.2814551  0.012335799  0.013581498            7 
   62800   0.86946801    -6.517386    9.2385905  0.012259276  0.013575117            9 
   62900   0.84079282   -6.5212968    9.2058556  0.012196417  0.013568055            8 
   63000   0.88844861   -6.5222077    9.1983793  0.012167168  0.013560781            3 
   63100   0.84826885   -6.5226563    9.2249347  0.012182956  0.013553262           11 
   63200    0.8658585    -6.532319    9.2371237  0.012179752  0.013545983            5 
   63300   0.92705101   -6.5614849    9.2634867  0.012195217  0.013539071            6 
   63400   0.90484293   -6.5476258    9.3332042  0.012267618   0.01353248            5 
   63500   0.86452617   -6.5728471    9.3574308  0.012280093  0.013526065            3 
   63600   0.87074702   -6.5193349    9.3890696   0.01230224  0.013519719            6 
   63700   0.87248945   -6.4164894    9.4005765  0.012297981  0.013514212            5 
   63800   0.87353963   -6.5056835     9.412558  0.012294355  0.013508985            4 
   63900   0.84203446   -6.5294139    9.3957088  0.012253141  0.013503327            2 
   64000    0.9027213   -6.5329416    9.4403439  0.012292114  0.013497284            2 
   64100    0.8800619   -6.5531027    9.4795636  0.012323926  0.013491574            3 
   64200   0.85570758   -6.5382421    9.4987994  0.012329698  0.013485802            5 
   64300   0.84152254   -6.4793902    9.4958094  0.012306648  0.013479915            2 
   64400    0.8593636   -6.5037493    9.4299219   0.01220228  0.013473204            5 
   64500   0.87832332   -6.4963671    9.3860177  0.012126638  0.013466202            8 
   64600   0.90234746   -6.4663418    9.4365167  0.012173009  0.013459408            7 
   64700   0.85973616   -6.4459113    9.4837271  0.012215001    0.0134531            4 
   64800   0.87440947   -6.5167093    9.4669825  0.012174617  0.013446701           10 
   64900   0.86567362   -6.5130444    9.4588325  0.012145394  0.013439865            3 
   65000   0.90554014   -6.4776559    9.5148984  0.012198588  0.013433665            9 
   65100   0.88458905   -6.4602305    9.5165682  0.012181987  0.013427618           10 
   65200   0.85347249    -6.530233     9.523786  0.012172528  0.013421514            7 
   65300   0.89227731   -6.5208208    9.5857309  0.012232939   0.01341522            6 
   65400   0.86447686   -6.4979622    9.6032511  0.012236558  0.013409289            6 
   65500   0.85760827   -6.5184406    9.6205886  0.012239934  0.013403411           10 
   65600   0.90824587   -6.4938738    9.6444038  0.012251529  0.013397327           12 
   65700   0.86498836   -6.4767996    9.6625672   0.01225592  0.013391415            5 
   65800   0.89348495   -6.4700327    9.6361815  0.012203877  0.013385676            8 
   65900   0.83688132   -6.4680057    9.5808916  0.012115442  0.013379421            6 
   66000   0.89209851   -6.5359689    9.5920606  0.012111188  0.013372453            6 
   66100   0.84192689   -6.5322248     9.632316  0.012143616  0.013365744           12 
   66200   0.85373485   -6.4553934     9.656557  0.012155787  0.013359124            8 
   66300   0.85469506   -6.4419183    9.6622852  0.012144652  0.013352921            6 
   66400   0.85990207   -6.4801787     9.634293  0.012091231  0.013346652            7 
   66500    0.9031369   -6.4577477    9.6752496  0.012124373  0.013340318           14 
   66600   0.87376592   -6.4861514    9.6395868  0.012061545  0.013333675            3 
   66700   0.89662021   -6.4715605    9.6805155  0.012094597  0.013326935            2 
   66800   0.89504294   -6.4769367     9.681227  0.012077379  0.013320392            4 
   66900   0.85061326   -6.5061714    9.7016449  0.012084759  0.013313723            5 
   67000   0.88471636   -6.4620974    9.7195304  0.012088968  0.013307147            5 
   67100   0.90402023   -6.4677983    9.7538285  0.012113547  0.013301078           10 
   67200   0.92776348   -6.5298184      9.78221  0.012130717  0.013295307            3 
   67300   0.89389059   -6.5555448    9.7989338    0.0121334  0.013289423            4 
   67400   0.90099366   -6.4544207    9.9188925  0.012263715  0.013283799            3 
   67500   0.87157217   -6.4090526    9.9315188  0.012261134   0.01327909            4 
   67600   0.86705786   -6.4265837    9.8776186  0.012176551  0.013274174            4 
   67700   0.92720021   -6.5046499    9.8663949   0.01214475  0.013269381            7 
   67800   0.87129989   -6.4663266    9.8902071  0.012156105  0.013264408            9 
   67900   0.92096292   -6.4912361    9.9707804  0.012237089  0.013259767            4 
   68000   0.86410773   -6.4602314    9.9337863  0.012173758  0.013255202            5 
   68100   0.86544964   -6.5631833    9.9383834  0.012161507  0.013250228           13 
   68200   0.87799966   -6.4613011    9.9861247   0.01220201  0.013245377            2 
   68300   0.87886702   -6.4973688    9.9534963  0.012144334  0.013240333            7 
   68400   0.83327598     -6.51354    9.9296664  0.012097547  0.013234427            7 
   68500   0.89551093   -6.5371468    9.9175569  0.012065154  0.013228039           10 
   68600   0.84683149   -6.5223378    9.9136216  0.012042786  0.013221297            6 
   68700   0.86044214   -6.5086885    9.8697562  0.011972048  0.013213946            9 
   68800   0.91692581   -6.5069602    9.8313205  0.011908092  0.013206312            3 
   68900    0.8538756   -6.4911486    9.8606889  0.011926329  0.013198799            3 
   69000   0.85088356   -6.4683129    9.8904959  0.011945043  0.013190992            2 
   69100   0.91105257   -6.4780346    9.9272516  0.011972083  0.013183802            5 
   69200   0.88712096   -6.4918312    9.9157673  0.011940953   0.01317666            3 
   69300   0.87572188   -6.4957526    9.8955626  0.011899426  0.013169198            3 
   69400   0.88515087    -6.477428    9.9439385  0.011940368  0.013161812            3 
   69500   0.88329646   -6.4301516    9.9498775  0.011930309  0.013154907            3 
   69600   0.86743656   -6.4726988    9.8992438  0.011852543  0.013147575            4 
   69700   0.90820223   -6.5007786    9.9488676  0.011894868  0.013140518            6 
   69800    0.9259707    -6.449609    9.9765498  0.011910876  0.013133835            3 
   69900   0.92737714   -6.4873608    10.025011  0.011951611  0.013127258            1 
   70000   0.88194706    -6.509518    10.002249  0.011907439  0.013120297            4 
   70100    0.8788324   -6.5202388    10.005745  0.011894609  0.013113128            4 
   70200     0.900166   -6.4893763    10.082879   0.01196923  0.013106096            3 
   70300   0.85891613   -6.4448997    10.116205  0.011991708  0.013099628       -1e+20 
   70400   0.87892149   -6.4835867    10.080079  0.011931912  0.013092955            3 
   70500   0.85648554   -6.5123327    10.009826  0.011831946  0.013085683            2 
   70600   0.87085567   -6.4539731    10.064963  0.011880268   0.01307839            4 
   70700   0.90426814     -6.41649    10.134761  0.011945734   0.01307218            3 
   70800   0.89380076    -6.501939    10.100719  0.011888794   0.01306581           10 
   70900   0.89602145   -6.5218944    10.159025  0.011940555  0.013059297            3 
   71000   0.91067499   -6.4731523    10.132561  0.011892678  0.013052737            2 
   71100   0.88745796   -6.5588161    10.047727   0.01177652  0.013045341            5 
   71200   0.88359616   -6.5381154     10.07778  0.011795155  0.013037712            3 
   71300   0.88158208   -6.5060517    10.128778  0.011838216  0.013030189            3 
   71400   0.84597868   -6.4896476    10.146328  0.011842119  0.013022733            3 
   71500    0.8562594   -6.4993713    10.184264  0.011869772  0.013015568            6 
   71600   0.92467265   -6.5400337    10.217475  0.011891847  0.013008646            5 
   71700   0.83205837    -6.477649    10.193381  0.011847259  0.013001736            3 
   71800   0.92602511   -6.5024431    10.231589  0.011875104  0.012995015            4 
   71900   0.87290434   -6.4561089    10.203178  0.011825659  0.012988309            3 
   72000   0.85342748   -6.5288647    10.185857  0.011789186  0.012981469            4 
   72100   0.87108881   -6.4692756       10.183  0.011769533   0.01297422            4 
   72200   0.90776695   -6.4897278    10.178502   0.01174804  0.012966871            2 
   72300   0.85302728   -6.4764991    10.239724  0.011802356   0.01295981            9 
   72400   0.88058369    -6.508714     10.27661  0.011828511   0.01295285            5 
   72500   0.88122052   -6.4809009    10.276799  0.011812413  0.012946021            6 
   72600   0.88638698    -6.556983    10.286034  0.011806743  0.012939204           15 
   72700   0.89629985   -6.4759755    10.281838  0.011785692  0.012932425            5 
   72800   0.91431329   -6.5143682     10.36935  0.011869677  0.012926195            9 
   72900   0.85245011   -6.5173212    10.433752  0.011927014  0.012920224            8 
   73000   0.86468272   -6.5338286    10.471832  0.011954146  0.012914485           13 
   73100   0.88435603   -6.4843112    10.506021  0.011976769  0.012909066            9 
   73200   0.87532886   -6.5243213    10.520544  0.011976939  0.012904122            6 
   73300   0.90580503   -6.5100221    10.514298    0.0119535  0.012898912            3 
   73400   0.86735004   -6.4618118    10.562337  0.011991754  0.012894129            6 
   73500   0.89106379   -6.4455921    10.569301  0.011983335    0.0128896           16 
   73600   0.91591065   -6.4485701    10.575125  0.011973646  0.012885118            3 
   73700   0.90220958    -6.485553    10.540808  0.011918598    0.0128804            6 
   73800   0.86067221   -6.4521656    10.629463  0.012002555  0.012876053            5 
   73900     0.921339   -6.4717477    10.711844   0.01207921  0.012872115            5 
   74000   0.87281565   -6.4837902    10.777835  0.012137201  0.012868552            7 
   74100   0.89581675   -6.4542477    10.867199  0.012221321  0.012865406           10 
   74200     0.879288   -6.4192888    10.876989  0.012215845  0.012862809            9 
   74300    0.8915774   -6.5138125    10.820933  0.012136533  0.012859758            6 
   74400   0.87002542   -6.4805573    10.830451  0.012130881  0.012856486            4 
   74500   0.88769209   -6.4916562    10.887693  0.012178627  0.012853708            6 
   74600   0.90955843   -6.4854423    10.909872  0.012187078   0.01285086            9 
   74700   0.85027938   -6.4952903    10.887873  0.012146222  0.012848017            3 
   74800   0.84587554   -6.4877422    10.882722  0.012124244  0.012844488            4 
   74900   0.88959335   -6.5100464    10.944933  0.012177273  0.012841143            6 
   75000   0.84412095   -6.5381942    10.922789  0.012136432  0.012838027            9 
   75100   0.88131409   -6.5272831    10.959815  0.012161357  0.012834918            2 
   75200     0.871069   -6.4798048    10.985262  0.012173384  0.012832133            3 
   75300   0.89551545   -6.4465408    11.027023  0.012203434  0.012829714            4 
   75400   0.88563793   -6.5115057    11.043515  0.012205477  0.012827463            3 
   75500   0.84522923   -6.5176981    10.991781  0.012132209  0.012824578            5 
   75600   0.85528804   -6.5576771    10.970572  0.012092783  0.012821414           12 
   75700    0.8682404   -6.4828298    11.055801  0.012170631  0.012818395            5 
   75800   0.87782062   -6.4512573    11.149106  0.012257152  0.012816094            3 
   75900   0.90888675   -6.4448922    11.171799  0.012265918  0.012814241            9 
   76000   0.87725459   -6.4979814     11.15255  0.012228673  0.012812082            6 
   76100   0.90146746   -6.4963995    11.060277   0.01211156  0.012809225           10 
   76200   0.83329282    -6.489635    11.048575  0.012082868  0.012806168            3 
   76300   0.88878117   -6.5070783    11.163599  0.012192659   0.01280336            3 
   76400   0.87701946   -6.4742758    11.230458  0.012249627   0.01280111            1 
   76500   0.90934631   -6.4433343    11.309906  0.012320159  0.012799064            1 
   76600   0.86231771   -6.4525897    11.229096  0.012216162  0.012797278            2 
   76700   0.87924696    -6.529893    11.190085   0.01215785  0.012794667            4 
   76800   0.85931537   -6.5376814    11.219874  0.012174342  0.012791879            3 
   76900   0.88639861   -6.4767488    11.206085  0.012143568  0.012789159            9 
   77000   0.85777221   -6.5345621    11.218456  0.012141187  0.012786235           11 
   77100   0.88426169   -6.5385849    11.295195  0.012208381  0.012783525            9 
   77200   0.87063132   -6.4672252    11.324037  0.012223701  0.012781212            5 
   77300    0.9136353   -6.4201506    11.346222  0.012231805  0.012778876            2 
   77400     0.874928   -6.4343699    11.258516  0.012121572   0.01277629            2 
   77500   0.86968961   -6.4846077    11.293816  0.012143888  0.012773337            1 
   77600    0.8532512   -6.5557439    11.265706  0.012098052  0.012770286            2 
   77700   0.83470447   -6.5043483    11.259571  0.012075902  0.012766648            5 
   77800   0.91531256   -6.5419676    11.322742  0.012128044  0.012763617            2 
   77900   0.84840144   -6.4332301    11.387676  0.012181939  0.012761313            3 
   78000    0.8794059   -6.5161135    11.418254  0.012198989  0.012759305            7 
[...]
   82800   0.91914602   -6.5092618    12.001292  0.012078595  0.012659899            5 
   82900   0.89299133   -6.4762625    12.027354  0.012090223  0.012657363            8 
   83000   0.86126991   -6.4819469    11.959284  0.012007313  0.012654451            7 
   83100   0.88286369    -6.505328    12.035603  0.012069397  0.012651448            5 
   83200   0.85032628   -6.4434468    12.054156  0.012073473  0.012648765            4 
   83300   0.88845481   -6.4881166     12.00749  0.012012295  0.012645799            8 
   83400   0.91338227    -6.483067    12.084032  0.012074373  0.012643166            3 
   83500   0.90012579   -6.4537416    12.047318  0.012023272  0.012640491            6 
   83600   0.86354671    -6.449712    12.035816  0.011997424    0.0126373            4 
   83700   0.90332953   -6.4671134    12.071674  0.012018792  0.012634442            7 
   83800   0.88367099   -6.5234345    12.022042  0.011955094  0.012631351           16 
   83900   0.89586826   -6.5078379    12.047031  0.011965664  0.012628267            4 
   84000   0.88223473   -6.4736244    12.058232  0.011962532  0.012625122            7 
   84100   0.83788462   -6.5239845    12.138547   0.01202789  0.012621923           10 
   84200    0.8689564   -6.4758537    12.130645  0.012005785  0.012618981            2 
   84300   0.88106344   -6.4620941      12.1641  0.012024615   0.01261622           16 
   84400   0.85661433    -6.484929    12.138955   0.01198554  0.012613228           10 
   84500   0.85354058   -6.5235498    12.138993  0.011971393  0.012609956           11 
   84600   0.87846741   -6.5301262    12.119831  0.011938368  0.012606524            8 
   84700   0.91169627   -6.4940115    12.199932  0.012003081  0.012603327            8 
   84800   0.88480312   -6.5118326    12.191834  0.011980969  0.012600258            9 
   84900   0.83878024    -6.528263    12.315155  0.012087903  0.012597161            6 
   85000   0.85896686   -6.5005065    12.326626  0.012084928  0.012594365           14 
   85100   0.87476605   -6.4887254    12.328535  0.012072596   0.01259181            8 
   85200   0.84509505   -6.5496837    12.319748  0.012049832  0.012589389            7 
   85300   0.86773093   -6.5107043    12.375323  0.012089999  0.012587053            8 
   85400   0.90902827   -6.4903029    12.401244  0.012101136  0.012584932           10 
   85500   0.89244337   -6.5034881    12.404713  0.012090364  0.012582903           12 
   85600   0.87739309   -6.5207764    12.439962  0.012110555  0.012580856           17 
   85700   0.87726666   -6.4328829    12.513636  0.012168063  0.012579047           14 
   85800   0.86671747    -6.490137    12.552047  0.012191188   0.01257781            9 
   85900   0.92075769   -6.5937295    12.542279  0.012167519  0.012576361            6 
   86000    0.8746116   -6.4634902    12.625158   0.01223368  0.012574893           13 
   86100   0.88434135   -6.4798554    12.598611  0.012193777  0.012573631           15 
   86200   0.82209951   -6.4260571    12.592187  0.012173421  0.012572123           10 
   86300   0.88451448   -6.4221628    12.597118  0.012164077  0.012570766            9 
   86400   0.92949097   -6.5547561    12.578723  0.012132256  0.012569172            8 
   86500   0.87782328   -6.5219212    12.601785  0.012140448  0.012567254            5 
   86600   0.87698683   -6.4341462    12.588088  0.012113249  0.012565496            2 
   86700   0.89022805   -6.4955842    12.678595   0.01218627  0.012564355            6 
   86800   0.90044734   -6.5383241    12.737735  0.012229008  0.012563408            4 
   86900   0.87312064   -6.4612169    12.750171  0.012226861  0.012562576            4 
   87000    0.8691804   -6.4400548    12.776378   0.01223791  0.012561859            6 
   87100   0.87399407   -6.4974606    12.733859  0.012183179  0.012561119            9 
   87200   0.92603434    -6.506095    12.803313  0.012235582  0.012560298            4 
   87300   0.92243181   -6.4750431    12.828806  0.012245901   0.01255972            4 
   87400   0.84391223   -6.4543355     12.86348   0.01226495  0.012559177            4 
   87500    0.9044321   -6.4730496    12.891525  0.012277643  0.012558447            5 
   87600   0.86107619   -6.4865575    12.980525  0.012348293  0.012558014            4 
   87700   0.85802476   -6.5049764    13.009633  0.012361871  0.012557665            5 
   87800    0.8707541   -6.4775376    12.993824  0.012332786  0.012557295            3 
   87900   0.88018709   -6.5397901    13.040786  0.012363278  0.012557067            4 
   88000   0.87206626   -6.5344872    13.034856  0.012343613  0.012556911            5 
   88100   0.87696295   -6.4553112    13.105719  0.012396632  0.012556895            9 
   88200   0.87979053   -6.4449391    13.118277  0.012394441  0.012557258            3 
   88300   0.86289239   -6.4718687    13.134173  0.012395407  0.012557547            3 
   88400   0.89239243   -6.4326655    13.165552  0.012410965  0.012557831            1 
   88500   0.86671754   -6.4673111    13.206765  0.012435748   0.01255825            3 
   88600   0.87085521   -6.5159973    13.194438  0.012410119  0.012558607            3 
   88700   0.87476886   -6.4737985    13.195763  0.012397372  0.012558748            9 
   88800    0.8347387   -6.4841464    13.247659  0.012432112  0.012559189            8 
   88900   0.89664021   -6.4807421     13.29706  0.012464436  0.012559684            7 
   89000   0.86701319   -6.4798426    13.328324  0.012479704  0.012560379            5 
   89100   0.85534883    -6.480197    13.334188  0.012471182  0.012561049            2 
   89200   0.85062343   -6.4901102     13.31727  0.012441395  0.012561432            3 
   89300   0.86249383   -6.4834218    13.254169  0.012368579  0.012561438            3 
   89400   0.87005671   -6.4983944    13.291518  0.012389558  0.012561433            4 
   89500   0.89368028   -6.5133103    13.341507   0.01242226  0.012561623           10 
   89600   0.84890437   -6.4934875    13.423139  0.012484318  0.012562062            3 
   89700   0.89338234   -6.4777727    13.373039  0.012423857  0.012562337            5 
   89800   0.87120339   -6.4873849    13.407312  0.012441826  0.012562679            4 
   89900   0.86741786   -6.4600141    13.387087  0.012409238  0.012563063            6 
   90000    0.8922475   -6.4605466    13.382246  0.012390969  0.012563323            5 
   90100   0.92378956   -6.4774643    13.425748  0.012417451  0.012564004            7 
   90200    0.9330228   -6.4494936    13.372249  0.012354258  0.012564583            7 
   90300   0.87752467   -6.4358656    13.413492  0.012378637  0.012564794            3 
   90400   0.91551535   -6.5018268    13.370759  0.012325552  0.012564653            4 
   90500   0.83244196   -6.4653493     13.36068  0.012302652  0.012564224            3 
   90600   0.87833079   -6.4253719    13.522472  0.012437888   0.01256417            8 
   90700   0.88226409   -6.4658784    13.466874  0.012373092  0.012564357            6 
   90800   0.86082393   -6.4800486     13.43638  0.012331479   0.01256414            8 
   90900   0.86707085   -6.4526131    13.429099  0.012311238  0.012563692            2 
   91000   0.93373992   -6.4789586    13.393957  0.012265529  0.012563206            2 
   91100    0.8689942   -6.4903105    13.355785  0.012217147  0.012562601            3 
   91200   0.91608671   -6.5307391    13.417318  0.012259976  0.012561864            3 
   91300   0.94120368   -6.4918375    13.470197  0.012294813  0.012561459            3 
   91400   0.85631645   -6.4543255    13.483835  0.012293795  0.012561191            2 
   91500    0.9104663   -6.4898451    13.475818  0.012273058  0.012560787            5 
   91600   0.87311958   -6.4710003    13.498432  0.012280233  0.012560208            8 
   91700   0.88899766   -6.4614915     13.47409   0.01224472  0.012559507            4 
   91800   0.87049054   -6.5241398    13.443999  0.012204066  0.012558575            3 
   91900   0.90032843   -6.5191056    13.415977  0.012165377  0.012557411            7 
   92000   0.93410807   -6.4767442    13.499081  0.012227429  0.012556154            3 
   92100   0.89940215   -6.4522592    13.446767  0.012166817  0.012555015            4 
   92200   0.86437896   -6.5207499    13.427873  0.012136545  0.012553324            5 
   92300   0.87057145   -6.4700166    13.463487  0.012155549    0.0125518            3 
   92400   0.91236323   -6.5077504    13.513656   0.01218764  0.012550519            5 
   92500   0.88210953    -6.540993    13.512088  0.012173052  0.012549223            4 
   92600   0.85771171   -6.4735942    13.486245   0.01213665  0.012547758            4 
   92700   0.87886347   -6.4504767     13.57365  0.012202131  0.012546537            8 
   92800   0.87323672   -6.4712413    13.579506   0.01219424  0.012545663            8 
   92900     0.864871   -6.5103068    13.548054  0.012152901  0.012544572            6 
   93000    0.8959095   -6.5229971    13.599699   0.01218611  0.012543458            4 
   93100   0.90237238   -6.4901942    13.588662  0.012163142  0.012542511            6 
   93200    0.9226806   -6.5396357    13.649925  0.012204868  0.012541635            3 
   93300   0.93826967   -6.4807842     13.71971  0.012254118  0.012541086            3 
   93400    0.8879084   -6.4811441    13.727233   0.01224771  0.012540541            3 
   93500   0.87440385   -6.4694727     13.75522  0.012259554  0.012540067            2 
   93600    0.8791205   -6.4358216    13.908719  0.012383118  0.012539714            2 
   93700   0.87607963   -6.4639637    13.980697  0.012433918  0.012539844            3 
   93800   0.88093268    -6.519275    13.896609  0.012345957   0.01253986            4 
   93900   0.87371457   -6.5440428    13.864436  0.012304257  0.012539539            7 
   94000   0.92158429   -6.5349251    13.842712  0.012271907  0.012539087            6 
   94100   0.89263409   -6.5149467    13.855689  0.012270358  0.012538546           17 
   94200    0.8468149   -6.5353366    13.768534  0.012180232  0.012537624            5 
   94300   0.89595178   -6.5134059    13.846636  0.012236335  0.012536782            5 
   94400   0.92153641    -6.509497    13.873818  0.012247368  0.012536176            5 
   94500   0.91157545   -6.4755367    13.906796  0.012263488  0.012535715            3 
   94600   0.87086197   -6.4886916    13.872863  0.012220634  0.012535173            2 
   94700   0.90841991    -6.458164    13.904363  0.012235448  0.012534637            8 
   94800   0.93843523   -6.4653359    13.918068  0.012234589  0.012534286            9 
   94900   0.84673859   -6.4514848    13.897812  0.012203909  0.012533509            5 
   95000   0.89474904    -6.449509    13.969645  0.012254075   0.01253287            3 
   95100   0.90882653   -6.4637292    14.059556  0.012319975  0.012532639            4 
   95200    0.8901592   -6.5194756    14.088027  0.012331957  0.012532437            4 
   95300   0.88869135   -6.4828594    14.140164  0.012364607  0.012532402            3 
   95400   0.86907586   -6.4540481    14.122288   0.01233603  0.012532406            4 
   95500   0.89071533   -6.4714338    14.085508  0.012291019   0.01253233            1 
   95600   0.92488067   -6.4415587    14.216638  0.012392466  0.012532479            6 
   95700   0.88557884   -6.4671728    14.154488  0.012325399  0.012532536            7 
   95800   0.88756887   -6.4048007    14.174508  0.012329948  0.012532604            8 
   95900   0.86977247   -6.4484151    14.174581  0.012317154  0.012532526           12 
   96000   0.86652416   -6.4469964    14.202249  0.012328341  0.012532337            6 
   96100   0.90435618   -6.4058678    14.234794  0.012343734  0.012532415            3 
   96200   0.90844204   -6.4869378    14.188832  0.012291088  0.012532415            5 
   96300    0.8980959   -6.4715693     14.20545  0.012292705  0.012532241            4 
   96400   0.89402061    -6.500535    14.239488  0.012309378   0.01253206            6 
   96500   0.88464524   -6.4818902    14.255849   0.01231075  0.012531704            4 
   96600   0.87904916   -6.4585657    14.303948    0.0123395  0.012531556            6 
   96700    0.8601405   -6.5265613    14.248164  0.012278666  0.012531189            3 
   96800   0.86263239   -6.4659416    14.362093  0.012364061   0.01253094            2 
   96900   0.89255692   -6.5032719    14.361592   0.01235087  0.012530901            7 
   97000   0.88841412   -6.5352037    14.374326  0.012349077  0.012530769            4 
   97100   0.85273268   -6.5334356    14.421394  0.012376754  0.012530521            8 
   97200   0.86368804    -6.519811    14.423841  0.012366119  0.012530288            3 
   97300   0.88279851   -6.4705749    14.511798  0.012428741  0.012530464            5 
   97400   0.87959832   -6.4820377    14.483958  0.012392161  0.012530602            2 
   97500   0.83304857   -6.5031399    14.476027  0.012372673   0.01253046            9 
   97600   0.86868624   -6.4701327    14.476688   0.01236056  0.012530345            4 
   97700   0.88309984   -6.4926797    14.487138  0.012356822  0.012530152            6 
   97800   0.83404898   -6.4285115    14.508654   0.01236252  0.012530045            3 
   97900   0.87626108   -6.4681261    14.566517  0.012399146  0.012530073           10 
   98000    0.8684745   -6.5207747    14.488535  0.012320183  0.012529838           14 
   98100   0.87260949   -6.5297352    14.515547   0.01233057  0.012529505           15 
   98200   0.88596422    -6.504666    14.583906  0.012376024  0.012529325           13 
   98300    0.8631248    -6.468084    14.595849  0.012373558  0.012529302            5 
   98400   0.87060369   -6.5046755    14.548373  0.012320777  0.012529307            7 
   98500    0.8681276   -6.4671528     14.50959  0.012275456  0.012529015            6 
   98600   0.91973993   -6.4507112    14.648617  0.012380508  0.012529224            4 
   98700   0.89597779   -6.4916664    14.651511  0.012370408  0.012529435            1 
   98800   0.84484058   -6.4283675    14.632858  0.012342154  0.012529464            2 
   98900    0.9059063   -6.4758987     14.68793  0.012376078  0.012529591            5 
   99000   0.90106948   -6.5432733    14.700091  0.012373814  0.012529698            4 
   99100   0.88125803   -6.5128139    14.699269  0.012360637  0.012529682            3 
   99200   0.87350553   -6.4541258    14.701569  0.012350108  0.012529688            2 
   99300   0.90319177   -6.4579332    14.703871  0.012339603  0.012529755            5 
   99400   0.88120004   -6.4430222    14.661228  0.012291438  0.012529742            3 
   99500   0.90544428   -6.4939511    14.668836  0.012285457  0.012529414            2 
   99600   0.88858098   -6.5300831    14.702315  0.012301134  0.012529142            2 
   99700   0.88346492   -6.5382824    14.711892  0.012296801  0.012528754            2 
   99800   0.90117029   -6.5104097    14.836829  0.012388802  0.012528545            2 
   99900   0.90121144   -6.4661197    14.780521   0.01232943  0.012528294            3 
  100000   0.85882251   -6.5087458    14.757782  0.012298152  0.012527802            5 
  100100   0.90201616   -6.5715388    14.706853  0.012243467   0.01252718           10 
  100200   0.89079913   -6.5109569    14.672807  0.012202933  0.012526247            4 
  100300   0.91839195   -6.4715944     14.72066  0.012230525  0.012525618            3 
  100400   0.87089624   -6.4940768     14.66174  0.012169439  0.012524887            4 
  100500   0.89362249   -6.5053665    14.755574  0.012235136  0.012524322            5 
  100600    0.8717418   -6.4417651    14.728018  0.012200147  0.012523758            5 
  100700   0.90972765   -6.5125263    14.796147  0.012244411  0.012523072            3 
  100800   0.87094739   -6.5500941     14.75063  0.012194635   0.01252226            1 
  100900   0.88263087   -6.4931888    14.841921  0.012257946   0.01252144            3 
  101000   0.91251923   -6.5206115     14.90686  0.012299389  0.012520955            5 
  101100   0.84587953    -6.503459     14.87534  0.012261243  0.012520322            2 
  101200   0.84269474   -6.5252581    14.817183  0.012201238  0.012519317            3 
  101300     0.858056   -6.6163519    14.833171  0.012202345  0.012518017            3 
  101400   0.86708271   -6.5205958    14.860724  0.012212955  0.012516883            5 
  101500   0.83805371   -6.4849234    14.887471  0.012222882  0.012515966            5 
  101600   0.89892469   -6.5034951    14.972466  0.012280566   0.01251519            4 
  101700   0.88729349   -6.5488305    14.962784  0.012260557  0.012514226            2 
  101800    0.8505785   -6.4930412    14.932879  0.012224033  0.012513392            2 
  101900   0.91850649   -6.4624895    15.013341  0.012277838   0.01251277            6 
  102000   0.87255399   -6.4694567    14.991915  0.012248297  0.012512262            3 
  102100   0.90500484   -6.5100869    14.945722  0.012198598    0.0125115            4 
  102200     0.911779   -6.4690947    14.937472  0.012179935  0.012510662            3 
  102300   0.91102122   -6.4717661    15.003426  0.012221754  0.012509976            4 
  102400   0.85834638    -6.493444    14.950124  0.012166442  0.012509044            3 
  102500   0.89590277   -6.4742468    15.000679  0.012195674  0.012508051            2 
  102600   0.88679113   -6.4561488    15.021951  0.012201065  0.012507303            3 
  102700   0.86819582   -6.5397914    15.014416   0.01218307  0.012506265            2 
  102800   0.88618285   -6.5379564    15.051858  0.012201571   0.01250515            3 
  102900   0.89662104   -6.4810407    15.095671  0.012225195  0.012504215            3 
  103000   0.86166976   -6.4346875    15.092377  0.012210661  0.012503487            5 
  103100   0.90008116   -6.4434377    15.105103  0.012209104   0.01250269            4 
  103200   0.90592931   -6.5348136    15.114547  0.012204899  0.012501829            4 
  103300   0.85446327   -6.4998226    15.170248  0.012238019  0.012501041            3 
  103400   0.90052024   -6.5005951    15.196482  0.012247326  0.012500338            5 
  103500   0.88411865   -6.4445973    15.152154  0.012199802  0.012499712            6 
  103600   0.88001474   -6.4998432     15.14189   0.01217977  0.012498864            5 
  103700     0.823218   -6.5206178     15.16561  0.012187086  0.012497992            4 
  103800   0.88327591   -6.5710033    15.252901  0.012245425  0.012497187           12 
  103900   0.87386163   -6.4795751    15.280772  0.012255993  0.012496673            2 
  104000   0.88963555   -6.5556792    15.259199  0.012226922  0.012495986            2 
Loop time of 191.03 on 12 procs for 100000 steps with 864 atoms

Performance: 90457.227 tau/day, 523.479 timesteps/s
99.4% CPU use with 12 MPI tasks x no OpenMP threads

MPI task timing breakdown:
Section |  min time  |  avg time  |  max time  |%varavg| %total
---------------------------------------------------------------
Pair    | 9.6596     | 10.447     | 11.315     |  15.0 |  5.47
Neigh   | 0.94496    | 0.98802    | 1.0235     |   2.2 |  0.52
Comm    | 7.5882     | 8.5482     | 9.4167     |  17.7 |  4.47
Output  | 2.0172     | 2.0183     | 2.0256     |   0.2 |  1.06
Modify  | 166.96     | 167.21     | 167.5      |   1.2 | 87.53
Other   |            | 1.818      |            |       |  0.95

Nlocal:        72.0000 ave          77 max          67 min
Histogram: 1 2 0 2 1 0 1 1 2 2
Nghost:        1574.83 ave        1601 max        1547 min
Histogram: 1 0 0 2 4 2 0 2 0 1
Neighs:        8142.58 ave        8884 max        7463 min
Histogram: 3 1 1 0 2 0 0 1 2 2
FullNghs:      16284.1 ave       17338 max       15092 min
Histogram: 1 1 1 3 0 0 2 0 2 2

Total # of neighbors = 195409
Ave neighs/atom = 226.16782
Neighbor list builds = 5232
Dangerous builds = 0

#clear
#
#next RN
#
#jump SELF



Total wall time: 0:03:11
