
units lj                  # Use reduced LJ style units
atom_style atomic         # Uncharged point particles
atom_modify map hash      # Needed for indexing of clusters etc
                          # Used to be able to find where atoms are in relation to each other.

# Define a lattice with which to populate the simulation cell. With units
# set to 'lj' the second argument to the lattice command is the reduced
# density rho* and the spacings are multiples of that required to acheive
# that density. Also define a simulation cell called 'box' in lattice units
# and fill it with atoms. Here we're creating a box which is ten lattice
# constants in each direction.
lattice fcc 1.0 spacing 1 1 1                 # All equal sizes - gives the right reduced density.
Lattice spacing in x,y,z = 1.5874011 1.5874011 1.5874011

region box block 0 6 0 6 0 6 units lattice # Defines a region, "box", in lattice units
create_box 1 box                              # Creates a simulation box as specified above,
Created orthogonal box = (0.0000000 0.0000000 0.0000000) to (9.5244063 9.5244063 9.5244063)
  2 by 2 by 3 MPI processor grid
                                              # with one type of atom
create_atoms 1 box                            # Creates particles on lattice points
Created 864 atoms
  using lattice units in orthogonal box = (0.0000000 0.0000000 0.0000000) to (9.5244063 9.5244063 9.5244063)
  create_atoms CPU = 0.001 seconds


# Set the mass of the first (and only) atom type.
mass 1 1.0

# Lennard-Jones interactions between particles, 3.5 sigma cut-off. Apply
# long range tail corrections to energy and pressure and set all coefficients
# to unity since we work in reduced units here. Note that this doesn't shift
# the potential such that it goes to zero at the cutoff. That would require
# pair_modify('shift', 'yes').
pair_style lj/cut  3.5      # non-GPU version
pair_modify tail  yes
pair_coeff 1  1  1.0  1.0   # Intearaction between 1 and 1 set with epsilon = 1 and sigma = 1

write_data data.*
System init for write_data ...
Neighbor list info ...
  update every 1 steps, delay 10 steps, check yes
  max neighbors/atom: 2000, page size: 100000
  master list distance cutoff = 3.8
  ghost atom cutoff = 3.8
  binsize = 1.9, bins = 6 6 6
  1 neighbor lists, perpetual/occasional/extra = 1 0 0
  (1) pair lj/cut, perpetual
      attributes: half, newton on
      pair build: half/bin/atomonly/newton
      stencil: half/bin/3d
      bin: standard

#############################
#   M E L T   S Y S T E M   #
#############################

velocity all create 2.4 2750902 mom yes dist gaussian # Assign velocities
                                                    # Temperature 2.4, random number seed, zero linear momentum
						                                                        # Gaussian distribution

timestep 0.002   # simulation timestep
thermo 100       # output thermodynamic data every 100 steps

# Define a fix  in this case with index 1 applied to all
# particles in the simulation. This fix is for simulations
# in the anisotropic NPT ensemble. Note that we use the MTK
# correction.
fix 1 all npt temp 2.4 2.4 0.1 iso 5.68 5.68 0.5 mtk yes tchain 5 pchain 5 # Use NPT ensemble
                                                                         # Set temperature and pressure and damping
                                                                         # Numbers of thermostats in chain and in barostat
run 1000         # run for 10000 steps
Per MPI rank memory allocation (min/avg/max) = 3.633 | 3.633 | 3.634 Mbytes
Step Temp E_pair E_mol TotEng Press Volume 
       0          2.4   -8.3859253            0    -4.790092     -2.24275          864 
     100    1.3007594   -6.4407842            0   -4.4919034    5.3582762    891.69205 
     200    1.5828213   -6.0796178            0   -3.7081338    6.4338598    907.46239 
     300    1.7629056     -5.73851            0   -3.0972122    5.5953229    954.02439 
     400    1.8733232   -5.2785237            0   -2.4717912    6.0585808    994.36537 
     500      2.02574   -4.9360708            0   -1.9009777    5.7478153    1042.8978 
     600    2.2112838   -4.6895875            0   -1.3765009    5.7138268    1079.0368 
     700    2.3146746   -4.4629638            0  -0.99497044    5.6088298    1118.0222 
     800    2.4734008     -4.39503            0   -0.6892229    5.7937797    1123.7282 
     900    2.4206618   -4.2767239            0  -0.64993368    5.5531987    1146.9555 
    1000    2.3618098   -4.2459295            0  -0.70731524    5.7000582    1143.3852 
Loop time of 0.192184 on 12 procs for 1000 steps with 864 atoms

Performance: 899138.169 tau/day, 5203.346 timesteps/s
99.6% CPU use with 12 MPI tasks x no OpenMP threads

MPI task timing breakdown:
Section |  min time  |  avg time  |  max time  |%varavg| %total
---------------------------------------------------------------
Pair    | 0.067502   | 0.079846   | 0.10951    |   4.8 | 41.55
Neigh   | 0.011766   | 0.013306   | 0.016424   |   1.4 |  6.92
Comm    | 0.049034   | 0.081921   | 0.095862   |   5.3 | 42.63
Output  | 0.00017744 | 0.00018363 | 0.00020973 |   0.0 |  0.10
Modify  | 0.014687   | 0.015325   | 0.015907   |   0.3 |  7.97
Other   |            | 0.001602   |            |       |  0.83

Nlocal:        72.0000 ave          80 max          66 min
Histogram: 2 1 2 2 1 0 2 0 0 2
Nghost:        1314.75 ave        1327 max        1295 min
Histogram: 1 0 0 2 3 0 0 1 2 3
Neighs:        6211.67 ave        7136 max        5326 min
Histogram: 2 0 0 2 1 4 1 0 0 2

Total # of neighbors = 74540
Ave neighs/atom = 86.273148
Neighbor list builds = 80
Dangerous builds = 2

# Equilibrate just above the melting temperature to avoid step fn in T

fix 1 all npt temp 1.25 1.25 0.1 iso 5.68 5.68 0.5 mtk yes tchain 5 pchain 5
run 1000
Per MPI rank memory allocation (min/avg/max) = 3.634 | 3.634 | 3.634 Mbytes
Step Temp E_pair E_mol TotEng Press Volume 
    1000    2.3618098   -4.2459295            0  -0.70731524    5.7000582    1143.3852 
    1100    1.8617945   -4.5967525            0    -1.807293    5.9593679    1083.5566 
    1200      1.66126   -5.0091582            0   -2.5201524    5.9308167    1028.0056 
    1300    1.4533368   -5.3154554            0   -3.1379734    5.5185254    997.93023 
    1400    1.3100587   -5.5224566            0    -3.559643    5.2858775     978.0358 
    1500    1.3306301   -5.7450087            0   -3.7513736    5.2687861    956.68836 
    1600    1.2302857    -5.777427            0   -3.9341343     5.385203    950.58576 
    1700    1.2545134   -5.8251615            0   -3.9455694    5.6370291    940.07281 
    1800    1.2669685   -5.8434457            0   -3.9451925    6.1076728    931.13358 
    1900    1.2975362   -5.8185374            0   -3.8744858    5.5765884    942.23221 
    2000    1.2225624   -5.8503078            0   -4.0185867    5.1330896    948.19804 
Loop time of 0.151351 on 12 procs for 1000 steps with 864 atoms

Performance: 1141715.209 tau/day, 6607.148 timesteps/s
99.9% CPU use with 12 MPI tasks x no OpenMP threads

MPI task timing breakdown:
Section |  min time  |  avg time  |  max time  |%varavg| %total
---------------------------------------------------------------
Pair    | 0.071269   | 0.075971   | 0.082935   |   1.4 | 50.20
Neigh   | 0.010072   | 0.01049    | 0.011074   |   0.3 |  6.93
Comm    | 0.041905   | 0.049554   | 0.054736   |   1.9 | 32.74
Output  | 0.00016753 | 0.00017621 | 0.00020297 |   0.0 |  0.12
Modify  | 0.01319    | 0.013433   | 0.013727   |   0.1 |  8.88
Other   |            | 0.001727   |            |       |  1.14

Nlocal:        72.0000 ave          79 max          65 min
Histogram: 1 1 0 4 0 1 1 3 0 1
Nghost:        1466.08 ave        1476 max        1447 min
Histogram: 1 1 0 0 2 0 0 4 1 3
Neighs:        7466.67 ave        8131 max        6694 min
Histogram: 1 0 2 0 3 1 3 0 0 2

Total # of neighbors = 89600
Ave neighs/atom = 103.70370
Neighbor list builds = 67
Dangerous builds = 0


# Small amount of linear quench

fix 1 all npt temp 1.25 ${temp} 0.1 iso 5.68 5.68 0.5 mtk yes tchain 5 pchain 5
fix 1 all npt temp 1.25 0.65 0.1 iso 5.68 5.68 0.5 mtk yes tchain 5 pchain 5
run 2000
Per MPI rank memory allocation (min/avg/max) = 3.634 | 3.634 | 3.634 Mbytes
Step Temp E_pair E_mol TotEng Press Volume 
    2000    1.2225624   -5.8503078            0   -4.0185867    5.1330896    948.19804 
    2100     1.239107   -5.8687128            0   -4.0122035    5.3947231    940.97356 
    2200    1.2109401   -5.9186032            0   -4.1042954    5.7432816    929.19852 
    2300    1.1789276   -5.9332051            0   -4.1668604    6.3300014    917.62438 
    2400    1.1645133   -5.9882774            0   -4.2435291    5.8636138    920.66562 
    2500    1.0970587   -6.0080113            0   -4.3643279    5.9172188    915.94948 
    2600    1.0644411   -6.0783856            0    -4.483572    5.6773634    913.76223 
    2700    1.0649377   -6.1500494            0   -4.5544917    5.4831012    911.43573 
    2800   0.99325981   -6.1184711            0   -4.6303057    5.9292577    906.74742 
    2900   0.99289986   -6.1810776            0   -4.6934516    6.0918272    897.61376 
    3000   0.96361283   -6.2144182            0   -4.7706719    6.0845854    894.98427 
    3100   0.93182568   -6.2561799            0   -4.8600592    6.1573495    890.04709 
    3200    0.9306026   -6.3426188            0   -4.9483305    5.7455262    889.55766 
    3300   0.85046753   -6.3478845            0   -5.0736597    5.7681681    887.47763 
    3400   0.84318659   -6.4243496            0   -5.1610335    5.5833692    883.82368 
    3500   0.82571996    -6.500448            0   -5.2633016     5.357299    881.05829 
    3600   0.82386533   -6.6074251            0   -5.3730574    5.3232522    873.56926 
    3700   0.77970965   -6.6554158            0    -5.487205    5.3418581    869.12445 
    3800   0.71775586   -6.6745904            0   -5.5992027    5.2414902    868.25895 
    3900   0.68823957   -6.6936417            0   -5.6624772    5.6111044    860.75002 
    4000   0.66073683   -6.7168883            0   -5.7269301    6.0103745    853.05581 
Loop time of 0.320975 on 12 procs for 2000 steps with 864 atoms

Performance: 1076718.594 tau/day, 6231.010 timesteps/s
99.9% CPU use with 12 MPI tasks x no OpenMP threads

MPI task timing breakdown:
Section |  min time  |  avg time  |  max time  |%varavg| %total
---------------------------------------------------------------
Pair    | 0.15743    | 0.1673     | 0.18292    |   2.1 | 52.12
Neigh   | 0.0168     | 0.017612   | 0.01948    |   0.6 |  5.49
Comm    | 0.08708    | 0.10472    | 0.11552    |   2.9 | 32.63
Output  | 0.00033295 | 0.0003411  | 0.0003868  |   0.0 |  0.11
Modify  | 0.026444   | 0.026902   | 0.027418   |   0.2 |  8.38
Other   |            | 0.004103   |            |       |  1.28

Nlocal:        72.0000 ave          79 max          62 min
Histogram: 1 0 0 2 2 2 0 2 1 2
Nghost:        1588.08 ave        1620 max        1560 min
Histogram: 1 0 1 2 3 2 2 0 0 1
Neighs:        8393.58 ave        9763 max        6891 min
Histogram: 1 0 1 1 2 3 1 0 2 1

Total # of neighbors = 100723
Ave neighs/atom = 116.57755
Neighbor list builds = 108
Dangerous builds = 0

#############################
# F R E E Z E  S Y S T E M  #
#############################

# Define solid atoms. This closely follows ten Wolde  Ruiz-Montero and Frenkel  Faraday Discuss  1996  104  93-110
# Compute components of the per-atom q6 vector
compute q6 all orientorder/atom degrees 1 6 components 6 nnn NULL cutoff 1.3 # compute the Q6 parameter.
                                                                             # Use all neighbours within 1.3 unit cell.

# get number of connections
compute coord_number all coord/atom orientorder q6 0.5

# An atom is solid if it has 8 or more connections (of a possible 14)
variable is_solid atom c_coord_number>=8
group solid dynamic all var is_solid    # Must be dynamic to update
dynamic group solid defined

# do clustering
compute cluster solid cluster/atom 1.3 # Create a cluster where all atoms within are solid and max 1.3 units from another member

# define chunks one chunk per cluster
compute clus_chunks solid chunk/atom c_cluster nchunk every compress yes  # Says which atoms are in which chunk

# count the size of each chunk
compute size_chunks solid property/chunk clus_chunks count


# Find the maximum entry in the vector of chunk sizes
variable max_n equal max(c_size_chunks)


# Thermo style which includes this variable
# thermo_style custom step temp pe vol v_max_n

thermo ${N}  # Print the thermo information every 100 steps
thermo 100  

# Reset the npt fix at a lower temperature (below freezing)

compute myRDF all rdf 100
fix 2 all ave/time 1 50 100 c_myRDF[*] file pcf.rdf mode vector


compute msd all msd com yes
variable twopoint equal c_msd[4]/6/(step*dt+1.0e-6)
fix 9 all vector 10 c_msd[4]
variable fit equal slope(f_9)/6/(10*dt)
thermo_style custom step temp pe c_msd[4] v_twopoint v_fit v_max_n


fix 1  all npt temp  ${temp} ${temp}  0.1  iso  5.68  5.68  0.5  mtk yes tchain  5  pchain  5
fix 1  all npt temp  0.65 ${temp}  0.1  iso  5.68  5.68  0.5  mtk yes tchain  5  pchain  5
fix 1  all npt temp  0.65 0.65  0.1  iso  5.68  5.68  0.5  mtk yes tchain  5  pchain  5

dump dmp2 all dcd ${N} traj.dcd
dump dmp2 all dcd 100 traj.dcd
dump dmp3 all dcd ${N} traj_unwrap.dcd
dump dmp3 all dcd 100 traj_unwrap.dcd
dump_modify dmp3 unwrap yes


# fix rnuntil all halt ${N} v_max_n >= 3980 error soft message no   # Stop when solidified

run 100000 # 5000000  # Run for this many steps
Neighbor list info ...
  update every 1 steps, delay 10 steps, check yes
  max neighbors/atom: 2000, page size: 100000
  master list distance cutoff = 3.8
  ghost atom cutoff = 3.8
  binsize = 1.9, bins = 5 5 5
  5 neighbor lists, perpetual/occasional/extra = 1 4 0
  (1) pair lj/cut, perpetual
      attributes: half, newton on
      pair build: half/bin/atomonly/newton
      stencil: half/bin/3d
      bin: standard
  (2) compute orientorder/atom, occasional
      attributes: full, newton on
      pair build: full/bin/atomonly
      stencil: full/bin/3d
      bin: standard
  (3) compute coord/atom, occasional
      attributes: full, newton on
      pair build: full/bin/atomonly
      stencil: full/bin/3d
      bin: standard
  (4) compute cluster/atom, occasional
      attributes: full, newton on
      pair build: full/bin/atomonly
      stencil: full/bin/3d
      bin: standard
  (5) compute rdf, occasional, copy from (1)
      attributes: half, newton on
      pair build: copy
      stencil: none
      bin: none
Per MPI rank memory allocation (min/avg/max) = 9.702 | 9.706 | 9.708 Mbytes
Step Temp PotEng c_msd[4] v_twopoint v_fit v_max_n 
    4000   0.66073683   -6.7168883 7.8886091e-31  1.64346e-32 8.3333333e+20           13 
    4100   0.63532223   -6.7574762    0.0300009 0.00060977432  0.027092741            3 
    4200   0.65699323   -6.8186879  0.050635818 0.0010046788  0.022341802            3 
    4300   0.64162858   -6.8240691  0.066367735 0.0012861963  0.018726246            3 
    4400   0.65957465   -6.7689864   0.08061247 0.0015267512  0.016475439            3 
    4500   0.65764254   -6.7832478  0.092552619 0.0017139372  0.015012842            2 
    4600   0.64142578   -6.8054551   0.10012762 0.0018139059  0.013450594            6 
    4700   0.63031686   -6.8540333   0.11165918 0.0019797725  0.012378334            7 
    4800   0.66593652   -6.8584032   0.11557694 0.0020065439  0.011421738            9 
    4900    0.6424793   -6.8500348   0.12041872 0.0020479373  0.010462462            5 
    5000   0.65358321   -6.8903471   0.12920205 0.0021533674 0.0097200815            3 
    5100   0.64584812   -6.8753895   0.14357609 0.0023460143 0.0092833762            6 
    5200   0.63574975    -6.889685   0.15622677 0.0025036338 0.0091510382            4 
    5300   0.66819736   -6.9021177    0.1639356 0.0025776035 0.0090331949            8 
    5400    0.6690685   -6.8311622   0.17661447 0.0027255316 0.0089601733            4 
    5500   0.65003793    -6.859186   0.18164674  0.002752223 0.0088485795            4 
    5600    0.6358436   -6.8285955   0.18912005 0.0028142862 0.0087058107           10 
    5700   0.64054335   -6.8767095   0.19827218 0.0028987158  0.008570858            6 
    5800   0.66637001   -6.8804008   0.20530802 0.0029498276 0.0084410621            6 
    5900   0.65467516   -6.8437916   0.21209285 0.0029956614 0.0083070664           13 
    6000   0.65274889   -6.8827475   0.21899801 0.0030416388 0.0081872369           26 
    6100   0.61416356     -6.88546   0.22218049 0.0030352524 0.0080271192           22 
    6200   0.64830236   -6.8347905   0.22579522 0.0030348818 0.0078443971           20 
    6300    0.6479282   -6.9262341   0.23411298 0.0030967323 0.0076769098           21 
    6400    0.6702339   -6.8374684   0.23448006 0.0030531256 0.0075011062           20 
    6500   0.65661016   -6.8557413   0.23234137 0.0029787352 0.0073006763           10 
    6600   0.65074388   -6.8687419   0.22976634 0.0029010899 0.0070507444           13 
    6700   0.64550812   -6.9285839   0.23437988 0.0029151725 0.0068146479           12 
    6800   0.67884686   -6.8554922   0.23960052 0.0029362806 0.0066019009           14 
    6900   0.66647314   -6.8770233   0.24964462 0.0030150314 0.0064297123           12 
    7000    0.6135021   -6.8862529   0.25473042 0.0030325047 0.0062837257           14 
    7100   0.61728559   -6.8757697   0.25812492 0.0030296351 0.0061495094           10 
    7200   0.67059329   -6.8794399   0.26437538 0.0030599001  0.006030043           17 
    7300   0.64932042   -6.8986981   0.27152282 0.0030995753 0.0059287116           17 
    7400   0.67633569   -6.8772476   0.27787905 0.0031292684 0.0058481043           14 
    7500   0.64839747    -6.913871   0.28364691 0.0031516322  0.005768926           14 
    7600   0.64041093    -6.903948   0.28976536 0.0031772516 0.0057015849           11 
    7700   0.68939068   -6.9214129   0.28961335 0.0031343435 0.0056342297           14 
    7800   0.64420931   -6.9206174   0.29271189 0.0031272636 0.0055511062            9 
    7900   0.67246861     -6.92787   0.29175376 0.0030775711 0.0054655601            5 
    8000   0.66303247   -6.9064612   0.29443991 0.0030670822 0.0053732525           11 
    8100   0.65327931   -6.9471185   0.30416574  0.003129277 0.0052992928           13 
    8200   0.63800292    -6.893249   0.30649827 0.0031148196  0.005228516            7 
    8300   0.65564092   -6.8863713   0.30800624  0.003092432 0.0051592674           12 
    8400   0.64948482   -6.8990226   0.30879461 0.0030634384 0.0050850624           10 
    8500   0.62318527   -6.8992937   0.30877393 0.0030271952 0.0050040328            7 
    8600   0.66911363   -6.9327358   0.31673393 0.0030691271 0.0049273796           11 
    8700   0.63633661   -6.8767094   0.33099044 0.0031704063 0.0048789392           13 
    8800   0.64403111   -6.9077863   0.33067069 0.0031313511 0.0048381112           18 
    8900    0.6171235   -6.9095201   0.32805813 0.0030717052 0.0047822157           10 
    9000   0.67515418   -6.9418553    0.3319687 0.0030737841 0.0047227262           14 
    9100   0.67156423   -6.8974848   0.34082206 0.0031210809 0.0046747523           18 
    9200   0.64521472   -6.8921392   0.33627832 0.0030459991 0.0046263068           31 
    9300   0.64517717   -6.9665066   0.33120574 0.0029677932   0.00455987           14 
    9400    0.6472041   -6.9311558   0.33644108 0.0029826335  0.004497117           20 
    9500   0.64425253   -6.8800824   0.34014882 0.0029837614 0.0044362436           42 
    9600   0.65530729   -6.9425114   0.34574606 0.0030012677 0.0043803807           61 
    9700   0.64376231   -6.9375342   0.34894876 0.0029978414 0.0043302691           35 
    9800   0.69180254   -6.9177061   0.34704192 0.0029510366 0.0042749085            7 
    9900   0.65300262   -6.8996354   0.35658235 0.0030015348 0.0042268303           14 
   10000   0.64998002   -6.9584124   0.35836276 0.0029863562 0.0041843259           25 
   10100   0.65612482   -6.9840896   0.35801516 0.0029539204 0.0041399518           40 
   10200   0.64689263   -6.9372307   0.36716216 0.0029996907 0.0040965104           34 
   10300   0.65939293   -6.9069589   0.37994421 0.0030739821 0.0040692577           28 
   10400     0.611765   -6.9105529   0.38462446 0.0030819266 0.0040463073           29 
   10500   0.63652719   -6.9310904   0.39071316  0.003100898 0.0040235445           27 
   10600   0.65578998   -6.9123925     0.390362 0.0030688835 0.0040025339           35 
   10700   0.65054991    -6.915942   0.39424293 0.0030704276 0.0039803243           25 
   10800   0.62748356   -6.9144228   0.39916083 0.0030799445 0.0039597796           61 
   10900   0.65686857   -6.9158762   0.39109262 0.0029900046 0.0039325282           37 
   11000   0.63939466   -6.9709689    0.3914802  0.002965759 0.0038985654           37 
   11100   0.63062189   -6.9221903   0.39301487 0.0029505619  0.003865681           29 
   11200   0.63775405   -6.9137381   0.39500185 0.0029390017 0.0038316192           25 
   11300   0.64654522    -6.878676    0.4020978 0.0029653229 0.0038014315           22 
   11400   0.65101018   -6.9374569   0.39916939 0.0029179048 0.0037713289           17 
   11500   0.63056864   -6.9158227   0.39741692 0.0028798326 0.0037376387           31 
   11600   0.66884321   -6.9275087   0.40420211 0.0029037507  0.003704659           45 
   11700    0.6429167   -6.9544375    0.4107465 0.0029255448 0.0036770014           96 
   11800   0.63459794   -6.9757815   0.42054408 0.0029699439 0.0036532868          125 
   11900   0.65283776    -6.887218    0.4331186 0.0030330433 0.0036382275           86 
   12000   0.65609112   -6.9420615   0.44064883 0.0030600612 0.0036280935          141 
   12100   0.64084578   -6.9520551   0.43896596 0.0030231814 0.0036178567          127 
   12200   0.62539823   -6.9902344   0.44427829 0.0030346877 0.0036060044          126 
   12300   0.65383271   -6.9791456   0.44454872 0.0030118476  0.003593177           80 
   12400   0.64561297   -6.9610425   0.44721334 0.0030054659 0.0035796643          151 
   12500   0.66770867   -6.9585368   0.45206743 0.0030137828 0.0035673375          160 
   12600   0.66517926   -6.9256786   0.44349026 0.0029331365 0.0035506259          152 
   12700   0.65311083   -6.9902417   0.43861094 0.0028780244 0.0035265287          139 
   12800   0.63440035   -6.9417053   0.44193268 0.0028771658 0.0035014459          121 
   12900   0.68062003   -6.9687486   0.45206574 0.0029203212 0.0034827266          124 
   13000   0.66174045   -6.9636773   0.45091846 0.0028905028 0.0034623836          122 
   13100   0.64680415   -6.9875915   0.45786447 0.0029126238 0.0034434591          150 
   13200   0.64626544   -6.9181993   0.46146026 0.0029132591 0.0034280247          139 
   13300   0.66153423   -6.9884351    0.4776503 0.0029927963 0.0034157391          169 
   13400   0.61972783   -6.9446611    0.4772527 0.0029679893 0.0034060576          171 
   13500   0.66607427   -6.9050942   0.47795942 0.0029503667 0.0033952341          186 
   13600   0.63888914   -6.9341479   0.47248097 0.0028951039 0.0033821051          187 
   13700   0.69048265   -7.0001409    0.4744862  0.002886169 0.0033647003          194 
   13800   0.62664492   -6.9404435   0.48258771 0.0029141769 0.0033504412          172 
   13900   0.64828631   -6.9632918   0.48192326 0.0028892281 0.0033374525          191 
   14000     0.646856   -6.9573045   0.48003877 0.0028573736 0.0033217679          171 
   14100   0.64784864   -6.9942357    0.4795441 0.0028341849 0.0033038511          201 
   14200    0.6268049   -6.9431815   0.48813892 0.0028646649 0.0032874232          201 
   14300   0.67041207   -6.9487343   0.50286565 0.0029304524 0.0032764855          196 
   14400   0.64847473   -6.9434371   0.50182833  0.002904099 0.0032673218          181 
   14500   0.65146917   -6.9844703   0.50353557 0.0028938825  0.003256495          194 
   14600   0.66419196   -6.9266961   0.50840361  0.002901847 0.0032459882          180 
   14700   0.66768107   -6.9515142   0.51342885 0.0029105943  0.003237056          210 
   14800   0.64606053   -6.9546921   0.51512673 0.0029004882 0.0032278415          189 
   14900   0.66132026   -6.9368285   0.52101842 0.0029139732 0.0032192173          177 
   15000     0.644214   -6.9500208   0.52538275  0.002918793 0.0032115784          180 
   15100   0.63241478   -6.9435222   0.52664663 0.0029064383  0.003203889          167 
   15200   0.64643806   -6.9639491   0.53034056 0.0029075688 0.0031957407          176 
   15300    0.6578215   -6.9835946   0.54610834 0.0029744462 0.0031909981          237 
   15400   0.64609753   -6.9630345   0.55012166 0.0029768487 0.0031879701          251 
   15500   0.67293892   -6.9961242   0.57150898 0.0030726288 0.0031888781          221 
   15600   0.64265907   -6.9189166   0.57548928 0.0030741948 0.0031928257          229 
   15700      0.63786   -6.9435036   0.58823992 0.0031222925 0.0031984583          220 
   15800   0.63961064   -6.9543864   0.59489226 0.0031376173 0.0032056004          249 
   15900   0.65430914   -6.9365225   0.58472832 0.0030646137 0.0032109313          253 
   16000   0.63957435   -7.0085295   0.57813872 0.0030111391  0.003210351          245 
   16100   0.65191829   -6.9811992   0.57447321 0.0029734637  0.003207439          257 
   16200   0.65140948   -6.9328149   0.57561166 0.0029609652 0.0032031088          241 
   16300   0.62879569   -6.9589181   0.57063521 0.0029173579 0.0031966928          273 
   16400    0.6738675   -6.9916262   0.58093284 0.0029518944 0.0031914916          258 
   16500   0.69658372   -6.9547423   0.59177244 0.0029887496 0.0031879863          232 
   16600   0.67619552   -6.9837635   0.58703325  0.002946954 0.0031855435          263 
   16700   0.63833182   -7.0018646   0.58320027 0.0029101809 0.0031784603          250 
   16800   0.64586941   -7.0022603   0.58676337 0.0029105325 0.0031714071          246 
   16900     0.636146   -7.0052395   0.59815179 0.0029494663 0.0031663659          270 
   17000   0.66190547   -6.9714437   0.60751214 0.0029780006 0.0031636386          284 
   17100   0.65307118   -7.0028336   0.60748936 0.0029604744 0.0031604328          310 
   17200   0.63499722   -6.9722438   0.60616366 0.0029368394 0.0031568637          284 
   17300   0.63935157   -6.9993797   0.60838666 0.0029305715 0.0031521644          324 
   17400   0.64685681   -6.9557375    0.6049592 0.0028973141 0.0031458348          289 
   17500    0.6260213   -7.0021606   0.59388468 0.0028280222 0.0031367998          300 
   17600   0.63938956    -7.016772   0.60745156  0.002876191  0.003127593          287 
   17700    0.6416085   -7.0045086   0.61502158 0.0028955817 0.0031211698          279 
   17800    0.6871988   -6.9506391   0.61708654 0.0028889819 0.0031154919          300 
   17900   0.65857927   -6.9842212   0.61965479 0.0028847988 0.0031098747          336 
   18000   0.66148605   -7.0151806   0.61648284 0.0028540871 0.0031027493          325 
   18100   0.63237824   -7.0066468   0.62200344 0.0028637358 0.0030961161          347 
   18200    0.6240986   -7.0221427   0.61983788 0.0028380855 0.0030882151          356 
   18300   0.65280415   -7.0205591   0.62974425 0.0028676878 0.0030814651          390 
   18400   0.65199757   -6.9792352    0.6305152 0.0028555941 0.0030748981          368 
   18500   0.64697184   -7.0271968   0.63886565 0.0028777731 0.0030689774          378 
   18600   0.65682634   -7.0212558   0.64755094 0.0029012138 0.0030646797          387 
   18700   0.65089549   -6.9794159   0.65856133 0.0029347652 0.0030617997          387 
   18800   0.64724682   -7.0395656   0.65032312 0.0028826378 0.0030581064          396 
   18900   0.61850608   -7.0121035   0.65510604 0.0028884745 0.0030536407          383 
   19000   0.66009065   -7.0436855   0.64952728 0.0028488038 0.0030482414          374 
   19100   0.67064805    -7.021654   0.65194144 0.0028444215 0.0030421282          365 
   19200   0.67690078   -7.0223662   0.65874858 0.0028591518 0.0030364711          388 
   19300   0.63533377    -7.023217   0.64959944 0.0028048334 0.0030300309          405 
   19400   0.66893707   -7.0756087   0.64753471 0.0027815064 0.0030214054          399 
   19500   0.61018739   -7.0091927   0.64516352  0.002757109 0.0030130638          371 
   19600   0.65795975   -7.0714814   0.65600386  0.002789132 0.0030042931          375 
   19700   0.66066226   -7.0219294   0.65535898  0.002772246 0.0029956308          416 
   19800   0.65163904   -7.0573278   0.66024488 0.0027788084 0.0029881092          439 
   19900   0.64443675   -7.0424995    0.6634318   0.00277819 0.0029801292          395 
   20000   0.65185937   -7.0116981   0.66656828 0.0027773678 0.0029732603          441 
   20100   0.65725267     -7.04328   0.66994687 0.0027775574 0.0029657578          439 
   20200    0.6744501   -6.9989941   0.68176253 0.0028125516 0.0029596595          415 
   20300    0.6549063   -7.0219844   0.69945737 0.0028713356 0.0029563246          387 
   20400   0.66329938    -7.051707   0.69747571 0.0028491654 0.0029539003          423 
   20500   0.62247834   -7.0651149   0.69153364 0.0028111123 0.0029494556          432 
   20600   0.64091301    -7.083385   0.69025763 0.0027923043 0.0029443104          428 
   20700   0.67184181   -7.0300717   0.69006356 0.0027780336  0.002938641          400 
   20800    0.6499561   -7.0130437   0.68580235 0.0027476055 0.0029320699          395 
   20900   0.62502964   -7.0619583   0.69294645 0.0027629443 0.0029252191          418 
   21000   0.62179678   -7.0487104   0.68832309 0.0027314408 0.0029183015          450 
   21100   0.66166917   -7.0588653   0.68835044 0.0027186036 0.0029104263          419 
   21200   0.64098183   -7.0599086   0.68353846  0.002686865 0.0029020469          422 
   21300   0.62055203   -7.0778504   0.69444567 0.0027169235 0.0028938285          431 
   21400   0.64076149   -7.0331613   0.70483129 0.0027446701 0.0028872032          412 
   21500   0.66832933   -7.0497434   0.69618392 0.0026983872 0.0028798902          437 
   21600   0.63673507    -7.090596   0.69770973 0.0026917813 0.0028715332          460 
   21700    0.6793676   -7.0423535   0.69782889 0.0026798344 0.0028632468          463 
   21800   0.64574924   -7.0706694   0.70482961 0.0026943027 0.0028559003          459 
   21900   0.63109457   -7.1337963   0.71510831 0.0027211122 0.0028492818          452 
   22000   0.65749168   -7.0451173    0.7098634 0.0026888764 0.0028422937          470 
   22100   0.64879414   -7.0697324   0.70859988 0.0026719452 0.0028347463          449 
   22200   0.64627829   -7.0762207   0.71327439 0.0026774564 0.0028274416          459 
   22300   0.63521553   -7.0546978   0.71741351 0.0026809174 0.0028204081          443 
   22400   0.65859288   -7.0478328   0.72782883 0.0027076965 0.0028142658          460 
   22500    0.6654268   -7.0066102   0.72834082 0.0026975585 0.0028085094          423 
   22600   0.66383482    -7.091061   0.71995633 0.0026547062 0.0028018973          436 
   22700   0.64075496   -7.1029262   0.72325006  0.002655103 0.0027946174          477 
   22800   0.65238571   -7.0795276    0.7250106 0.0026498925 0.0027872359          498 
   22900   0.64790897   -7.0415976   0.73419912  0.002671758 0.0027807007          492 
   23000   0.63753508   -7.0211948   0.74081883 0.0026841261 0.0027751709          502 
   23100   0.65082522    -7.088431   0.74664272 0.0026935162 0.0027703147          484 
   23200   0.63317447   -7.0665434   0.74733927 0.0026844082  0.002765128          477 
   23300   0.65605897   -7.0735913   0.76407456 0.0027327416 0.0027611878          481 
   23400    0.6716395   -7.0399323   0.77053364 0.0027440656 0.0027583226          468 
   23500   0.66464079    -7.089114   0.77112595 0.0027344891 0.0027556502          477 
   23600   0.64794337   -7.0737558   0.77479127 0.0027358448 0.0027527026          473 
   23700   0.65050522   -7.0680186   0.78084233 0.0027455778  0.002750268          475 
   23800   0.63732031   -7.0839442    0.7853116 0.0027496904 0.0027481404          485 
   23900   0.62139239   -7.0613256   0.78766338 0.0027463855 0.0027461274          479 
   24000   0.62897511   -7.0478023   0.79717827   0.00276798 0.0027443482          488 
   24100   0.67213499   -7.0825102   0.79750819 0.0027576354 0.0027427714          513 
   24200   0.66534965    -7.048096   0.79530413 0.0027386505 0.0027410404          512 
   24300   0.64651295   -7.0776716   0.79219265   0.00271671 0.0027385336          510 
   24400   0.63101792   -7.0798641    0.7951356  0.002715627 0.0027352438          496 
   24500     0.661029   -7.0669052   0.77968641 0.0026519945 0.0027313101          524 
   24600   0.64350063     -7.09734   0.76945406 0.0026065517 0.0027252626          514 
   24700   0.63336001   -7.1152638   0.77412044 0.0026117423 0.0027185669          535 
   24800   0.64823922   -7.0601504   0.77788975 0.0026138768  0.002712621          549 
   24900   0.67486937   -7.1107362   0.78211331 0.0026175144 0.0027071247          555 
   25000   0.61162098   -7.0903219   0.77313013 0.0025771004 0.0027005946          549 
   25100   0.64239604   -7.0664165    0.7809969 0.0025929512 0.0026940455          538 
   25200   0.67169196   -7.0636911   0.78658419 0.0026011381  0.002688201          532 
   25300   0.64977581   -7.0781254   0.78326783 0.0025799335 0.0026818768          549 
   25400   0.64796192   -7.0709088   0.79556318 0.0026101154 0.0026764054          532 
   25500   0.67065593   -7.0779957   0.80238338 0.0026221679 0.0026716456          544 
   25600   0.66498185   -7.0618376   0.82034059 0.0026703795 0.0026681507          580 
   25700   0.62387421   -7.0900356   0.82680744 0.0026809579 0.0026656106          600 
   25800   0.62702159    -7.075609   0.81759736 0.0026408183  0.002662694          583 
   25900   0.64979853   -7.1403839   0.82166455 0.0026437083 0.0026588228          605 
   26000   0.64749287    -7.101228   0.82012674 0.0026286113 0.0026551534          601 
   26100   0.63455614    -7.114245     0.813194 0.0025964048 0.0026506866          615 
   26200    0.6634435   -7.1201541   0.81560574 0.0025941658 0.0026457258          601 
   26300   0.66413825    -7.124614   0.81639653 0.0025868077 0.0026408816          611 
   26400   0.62074858   -7.1634114   0.81613887 0.0025761959 0.0026359607          617 
   26500   0.64212842   -7.1360146   0.82441806 0.0025925096 0.0026311642          636 
   26600   0.61787267   -7.0644794   0.82843804 0.0025953572 0.0026270792          640 
   26700   0.62716837    -7.161502   0.82580154  0.002577408 0.0026224107          656 
   26800    0.6191476    -7.173024   0.83143749 0.0025853155 0.0026176524          665 
   26900   0.67948166   -7.1319601   0.82580056 0.0025582421 0.0026132129          653 
   27000   0.66020461   -7.1651056   0.83439031 0.0025752787 0.0026082399          651 
   27100   0.65285239    -7.193654   0.83490491 0.0025673582 0.0026038594          649 
   27200   0.64046964   -7.1216468    0.8406776 0.0025756053 0.0025993884          632 
   27300   0.67271585   -7.1722563   0.83590163 0.0025515922 0.0025948228          638 
   27400   0.64518217   -7.1479174     0.846603 0.0025748266 0.0025904026          647 
   27500   0.67160292   -7.1257649   0.84444678 0.0025589296 0.0025861991          660 
   27600   0.67195962   -7.1729026   0.86842079 0.0026220434 0.0025831535          686 
   27700   0.67741718   -7.2081058   0.86927564 0.0026151493 0.0025808324          687 
   27800   0.64798492   -7.1134962   0.86613324 0.0025963226 0.0025782546          717 
   27900   0.69061429   -7.1590956   0.86854699 0.0025942263 0.0025753658          702 
   28000   0.65300092   -7.1650251   0.86319687 0.0025690383  0.002571894          723 
   28100   0.65809808   -7.2083541   0.87503112 0.0025949914 0.0025688883          696 
   28200     0.648347   -7.1385736   0.88014977 0.0026009153 0.0025661076          668 
   28300   0.65504471   -7.1605224   0.88690865 0.0026116273 0.0025640114          687 
   28400   0.62721713   -7.2035556    0.8762151 0.0025710536 0.0025612538          677 
   28500   0.63693197   -7.1599612    0.8779784 0.0025671882   0.00255771          696 
   28600   0.64050146   -7.1538709    0.8779236 0.0025580524 0.0025544647          717 
   28700   0.66385108   -7.1931419   0.87538209 0.0025417598 0.0025508061          692 
   28800   0.64491511   -7.1930527   0.88341478  0.002556177 0.0025471795          697 
   28900   0.67057104   -7.1384723   0.88079594 0.0025397806 0.0025438042          699 
   29000   0.64806252   -7.1714371   0.88970442 0.0025566219 0.0025403069          686 
   29100   0.63076679   -7.1959271   0.88537016 0.0025354242 0.0025370765          692 
   29200   0.65032333   -7.1998184   0.89050652 0.0025413999 0.0025331696          709 
   29300   0.65981767   -7.2166255   0.89975696 0.0025590357 0.0025301002          726 
   29400   0.62497898   -7.2153267   0.89980923 0.0025504796 0.0025272971          731 
   29500   0.65164067   -7.2036437   0.88972556  0.002513349  0.002523786          723 
   29600   0.63871179   -7.1791926   0.88595753 0.0024942498 0.0025196661          743 
   29700   0.64936997   -7.2339467   0.88134746 0.0024729165  0.002514819          746 
   29800   0.64482833   -7.2672442   0.89393417 0.0024998159 0.0025102113          741 
   29900   0.66743432   -7.2072799   0.90176521 0.0025132809 0.0025065474          748 
   30000    0.6273773    -7.214142   0.90250755 0.0025069654 0.0025028442          742 
   30100   0.61855349   -7.2283506   0.91432871  0.002531364 0.0024994022          750 
   30200   0.64562225   -7.2252275   0.92809694 0.0025609739 0.0024969518          763 
   30300   0.64963397   -7.1630639   0.91274713 0.0025103056 0.0024942478          735 
   30400   0.64022682   -7.2389394   0.90244524 0.0024738082 0.0024903777          750 
   30500    0.6365496   -7.2362699   0.89263426 0.0024388914  0.002485755          766 
   30600   0.64935264    -7.208328   0.88867242 0.0024201318 0.0024805882          754 
   30700   0.65142228   -7.2358394   0.88749148 0.0024090431 0.0024747185          759 
   30800    0.6447089   -7.2555011   0.89316894 0.0024165826 0.0024696449          759 
   30900    0.6566655   -7.2340449   0.90000397 0.0024271951 0.0024645621          758 
   31000   0.65402035   -7.2092879   0.91198523 0.0024515732 0.0024600358          752 
   31100     0.621753   -7.2268819   0.92002952 0.0024652452 0.0024560868          745 
   31200   0.63736457   -7.2459772   0.92381264 0.0024674483  0.002452279          754 
   31300   0.63027008   -7.1916255   0.93305964 0.0024841843  0.002448844          768 
   31400   0.67775149   -7.2178019    0.9332171 0.0024766908 0.0024458169          791 
   31500   0.66068714   -7.2957225   0.94039619 0.0024878206 0.0024427564          818 
   31600   0.62751874   -7.2702626   0.93371609 0.0024623314 0.0024396168          823 
   31700   0.65439681   -7.2514788   0.93597523 0.0024605027 0.0024359471          814 
   31800    0.6472258   -7.2432526   0.93750811 0.0024567822 0.0024326155          812 
   31900   0.62567779   -7.2605317   0.95198215 0.0024868917 0.0024297632          800 
   32000     0.659429    -7.271937   0.95247798 0.0024804114 0.0024270254          806 
   32100   0.66750266   -7.2829129   0.94682861 0.0024580182 0.0024240659          823 
   32200   0.63292832   -7.2799366   0.95602431  0.002474183 0.0024210296          818 
   32300    0.6285807   -7.2177254   0.97018032 0.0025030452 0.0024187045          809 
   32400   0.63855594   -7.2448899   0.98295474 0.0025281757 0.0024169937          799 
   32500   0.62215879   -7.2726256   0.97292911   0.00249469 0.0024152717          797 
   32600   0.68353042   -7.3086748   0.97354444 0.0024886105 0.0024131281          815 
   32700   0.67190079   -7.3163847   0.97873802 0.0024942355 0.0024110601          825 
   32800   0.63881977    -7.298048    0.9753081 0.0024779169 0.0024089263          827 
   32900   0.63841884   -7.3287017   0.97313783 0.0024648881 0.0024064689          836 
   33000   0.65276732   -7.2815226   0.96785863 0.0024440874 0.0024035825          837 
   33100   0.65941584   -7.2905329   0.96895587 0.0024394659 0.0024005816          835 
   33200   0.62787165   -7.2789878    0.9688577 0.0024318717 0.0023972913          847 
   33300   0.63803335   -7.2847791   0.96688683 0.0024196367 0.0023940466          841 
   33400   0.63610317   -7.3336958   0.97309356 0.0024278781 0.0023908372          840 
   33500   0.67763667   -7.3170096   0.96946826 0.0024116125 0.0023876046          837 
   33600   0.68764367   -7.3110101   0.95935458 0.0023793516 0.0023837927          845 
   33700   0.65497034   -7.2926038   0.96915131 0.0023965166 0.0023800868          837 
   33800   0.63013139   -7.3413188   0.96961617 0.0023905724 0.0023764381          833 
   33900   0.65282317   -7.3316441    0.9790521 0.0024067161 0.0023729891          838 
   34000   0.66893092   -7.3166826   0.97703078 0.0023946833 0.0023694706          843 
   34100   0.67258055   -7.3082572    0.9809239 0.0023971747 0.0023662353          845 
   34200   0.63714488   -7.3028054   0.98866436 0.0024090262 0.0023630711          835 
   34300   0.65247208   -7.3397282   0.98142824 0.0023844223 0.0023597028          844 
   34400   0.66225503   -7.3282498    1.0022027 0.0024278167 0.0023567881          839 
   34500   0.64599967   -7.2678204   0.99893016 0.0024128747 0.0023541625          842 
   34600   0.66294637    -7.344911   0.98967285 0.0023836051 0.0023510097          843 
   34700   0.65558595   -7.3056799   0.99647228  0.002393065 0.0023480172          847 
   34800   0.67427525   -7.3068849   0.99490511 0.0023824356 0.0023449531          839 
   34900   0.66162406   -7.3348271   0.99066913 0.0023654945 0.0023416097          842 
   35000   0.64913695   -7.3328663   0.97183667 0.0023138968 0.0023374654          846 
   35100   0.68071975   -7.3344504   0.98345752 0.0023348944 0.0023331072          842 
   35200   0.65322242   -7.3266145   0.98802142 0.0023390658  0.002329177          847 
   35300   0.65862869   -7.3455468   0.97986413 0.0023131825 0.0023250996          850 
   35400   0.66340601   -7.3328348   0.98662891 0.0023225727 0.0023207344          847 
   35500   0.63150096   -7.3025271    0.9951281 0.0023359814 0.0023168141          846 
   35600   0.65975163   -7.3601881   0.99763827 0.0023352956 0.0023131778          851 
   35700   0.62251752   -7.3193616    1.0008821 0.0023363262 0.0023095523          845 
   35800   0.63730657    -7.322161    1.0062516 0.0023422989 0.0023063014          846 
   35900   0.63040994   -7.3168251   0.99833263 0.0023173923 0.0023026165          847 
   36000   0.64157909   -7.3195119   0.99252075 0.0022975017 0.0022984669          847 
   36100   0.61634677   -7.3376965    1.0008021 0.0023102541 0.0022944417          851 
   36200   0.64929014   -7.3560949    1.0049701 0.0023134669 0.0022906035          847 
   36300   0.67278001    -7.317713   0.99658728 0.0022878496 0.0022866891          842 
   36400   0.64572432   -7.3294243    1.0034199 0.0022972067 0.0022828202          842 
   36500   0.64574746   -7.3449712   0.99664133 0.0022754368 0.0022788077          845 
   36600    0.6762397   -7.3213916   0.99749132 0.0022711551 0.0022746487          841 
   36700   0.66763832   -7.3551245    1.0046972 0.0022813288 0.0022705373          845 
   36800   0.61303025   -7.3319618    0.9934034 0.0022495548 0.0022662231          852 
   36900   0.65831888   -7.2785071   0.97702947 0.0022064803 0.0022610662          854 
   37000   0.68002661   -7.3259633   0.98985302 0.0022293987 0.0022560899          848 
   37100   0.65895711   -7.3269504   0.99513269 0.0022352486 0.0022514561          846 
   37200   0.66406433   -7.3457917    1.0022802 0.0022452512 0.0022469725          847 
   37300   0.63879156   -7.3432523    1.0091856 0.0022546595 0.0022429491          843 
   37400   0.65698548   -7.3240964    1.0124756 0.0022559616 0.0022389952          837 
   37500   0.68535518   -7.3398152     1.020045 0.0022667665 0.0022352178          844 
   37600   0.67345372   -7.2838128    1.0141775 0.0022477338 0.0022313294          841 
   37700   0.64528543   -7.3187837    1.0183428 0.0022509788 0.0022275805          838 
   37800   0.62159045   -7.3223327    1.0114112 0.0022297426 0.0022234353          848 
   37900   0.60634699   -7.3433553    1.0113856 0.0022238031 0.0022192449          853 
   38000   0.65177849   -7.3428738    1.0024225 0.0021982949 0.0022147681          839 
   38100   0.66698184   -7.3214436     1.005971 0.0022002866 0.0022102285          845 
   38200   0.64976894   -7.3552539   0.99475174 0.0021700518 0.0022053332          847 
   38300    0.6232459   -7.3535038   0.99204269 0.0021584915  0.002200267          851 
   38400   0.65242456   -7.3391387   0.98684089 0.0021415818 0.0021949297          844 
   38500   0.64064798   -7.3188552   0.98814242 0.0021388364 0.0021894879          844 
   38600   0.68916855   -7.3169589   0.99986719 0.0021586079 0.0021843658          851 
   38700   0.65112527   -7.3005598   0.99941916 0.0021520654 0.0021793973          844 
   38800   0.64484229   -7.3004372    1.0030799 0.0021543811 0.0021746168          845 
   38900   0.66214728   -7.3107912    1.0129487 0.0021699844 0.0021699851          838 
   39000   0.63066994   -7.3052581    1.0140483 0.0021667699 0.0021655855          840 
   39100   0.62801245   -7.3006124    1.0203165 0.0021745876 0.0021612212          843 
   39200   0.67552193    -7.338373    1.0241598 0.0021772104 0.0021571864          841 
   39300   0.64753595   -7.3127229    1.0267794 0.0021772251 0.0021530726          852 
   39400   0.63801858   -7.2916145    1.0157358 0.0021483413 0.0021488243          848 
   39500   0.67214747   -7.2581368    1.0328003 0.0021789035 0.0021447077          845 
   39600    0.6558669   -7.2640508    1.0289335  0.002165264 0.0021408508          844 
   39700   0.63902622   -7.3375562    1.0347613 0.0021720431 0.0021368763          847 
   39800   0.65694788   -7.3451407    1.0322282 0.0021612817 0.0021330166          845 
   39900   0.65039921   -7.3019845    1.0341048 0.0021597844 0.0021290203          842 
   40000   0.63987261   -7.3277313    1.0365178  0.002159412  0.002125169          848 
   40100   0.68476429   -7.2938303    1.0392521 0.0021597093 0.0021214123          834 
   40200   0.68377443   -7.3076748    1.0402094 0.0021563213  0.002117609          842 
   40300   0.61317414   -7.2890374    1.0550182 0.0021815926 0.0021140645          846 
   40400   0.65489062   -7.3276697    1.0549013 0.0021759515 0.0021108178          850 
   40500   0.64277418   -7.2710157     1.059955 0.0021809772 0.0021075389          846 
   40600   0.63217313   -7.3033363    1.0574734 0.0021705119 0.0021042398          846 
   40700   0.62600265    -7.311007    1.0407382 0.0021309136 0.0021005531          844 
   40800   0.62940185   -7.3632813    1.0428701 0.0021300451 0.0020965647          848 
   40900    0.6411691   -7.2955799    1.0488703 0.0021370625 0.0020927866          848 
   41000    0.6500264   -7.3153719    1.0661361 0.0021669433 0.0020893723          840 
   41100   0.67318262   -7.3079458    1.0639741 0.0021572874 0.0020862944          842 
   41200   0.63860901   -7.3427387    1.0551016 0.0021341051 0.0020828717          847 
   41300   0.63513782   -7.2814932    1.0560175 0.0021307858 0.0020792115          845 
   41400   0.66663156   -7.2902671    1.0727395 0.0021592985  0.002075911          835 
   41500   0.65504432   -7.3314894    1.0779871 0.0021646328 0.0020729694          842 
   41600   0.66344311   -7.3279768    1.0757998 0.0021550477 0.0020700249          848 
   41700   0.64115334   -7.2888939    1.0650831 0.0021284633 0.0020668843          843 
   41800   0.65834494    -7.335746    1.0575591 0.0021083714 0.0020631462          844 
   41900   0.65260857   -7.3221764    1.0466867 0.0020817158 0.0020592978          842 
   42000   0.63708793   -7.3236984    1.0466494 0.0020766853    0.0020552          846 
   42100   0.65892405   -7.2840449      1.03853 0.0020556809 0.0020509713          842 
   42200    0.6487027   -7.3324274    1.0478736 0.0020692606 0.0020466884          842 
   42300   0.65819539   -7.3299502    1.0445612 0.0020578431 0.0020424717          840 
   42400    0.6142892   -7.3458457    1.0397587  0.002043551 0.0020380812          849 
   42500   0.66682323   -7.3655261    1.0367888 0.0020329191 0.0020335401          844 
   42600   0.64309604   -7.3006406    1.0390507 0.0020325718 0.0020290456          843 
   42700   0.68758847    -7.291934    1.0372978 0.0020243906 0.0020245298          840 
   42800   0.65866498   -7.3131158    1.0310457 0.0020074877 0.0020198839          849 
   42900   0.64015335   -7.3039863    1.0378033 0.0020159349 0.0020151941          842 
   43000   0.62254773   -7.3963334    1.0398555 0.0020152238 0.0020106174          846 
   43100   0.63485783    -7.295837    1.0343991 0.0019999982 0.0020059495          844 
   43200   0.67016843   -7.3020576    1.0383536 0.0020029969 0.0020013303          849 
   43300   0.64024475   -7.3351488    1.0370457 0.0019958538 0.0019967655          843 
   43400   0.64552263   -7.3602993    1.0342303 0.0019858493 0.0019920554          846 
   43500   0.66872529   -7.3126326     1.026202 0.0019659043 0.0019872096          846 
   43600   0.62405919   -7.3158424    1.0223489 0.0019540307 0.0019821447          838 
   43700   0.66846105   -7.3527679    1.0296251 0.0019634346 0.0019771302          846 
   43800   0.68498841   -7.3007066    1.0433988 0.0019851575 0.0019725222          841 
   43900   0.64735331   -7.3116646    1.0555066 0.0020036191 0.0019683556          836 
   44000   0.64733541   -7.3487034    1.0625019 0.0020123142 0.0019644116          841 
   44100   0.64732702   -7.3005507     1.068541 0.0020191628 0.0019605812          842 
   44200    0.6616329     -7.29498    1.0645884 0.0020071425 0.0019568744          838 
   44300   0.66896775   -7.3082043    1.0635734 0.0020007023 0.0019530085          842 
   44400   0.63504724   -7.3303535    1.0502637 0.0019712156 0.0019489707          835 
   44500   0.66876946   -7.3411435    1.0590238 0.0019831906 0.0019447927          844 
   44600   0.61799529   -7.2693821    1.0454961  0.001953468 0.0019404499          833 
   44700   0.64681457   -7.3360495    1.0504445 0.0019583231 0.0019359515          844 
   44800   0.60893663   -7.3100418     1.059024 0.0019699107 0.0019318086          844 
   44900   0.64482828   -7.3273544    1.0656613  0.001977842 0.0019279006          843 
   45000   0.67723348   -7.3224624    1.0444683 0.0019342005 0.0019236727          844 
   45100   0.63687676   -7.3253684    1.0458428 0.0019324515 0.0019191547          843 
   45200   0.62076617   -7.3234741    1.0468215 0.0019299805 0.0019146653          842 
   45300   0.65659295   -7.3039683    1.0393322  0.001911943 0.0019102111          844 
   45400   0.68485408   -7.3449532    1.0343147 0.0018985218 0.0019053996          845 
   45500   0.66124751   -7.2916572    1.0379158 0.0019009446 0.0019007204          839 
   45600   0.66800842   -7.3468371    1.0374333 0.0018958942 0.0018962034          841 
   45700   0.67072667   -7.3146623    1.0386995 0.0018940544  0.001891437          842 
   45800   0.63428307   -7.2854058    1.0332665 0.0018800337 0.0018867714          844 
   45900    0.6527075   -7.3282408    1.0236398 0.0018584601 0.0018817505          843 
   46000   0.66814913   -7.3106337    1.0143573 0.0018376037 0.0018765055          844 
   46100   0.65480793   -7.2749765     1.019741 0.0018433495 0.0018712144          846 
   46200   0.64481372    -7.306775    1.0135377 0.0018281704 0.0018659187          847 
   46300   0.62917414   -7.3120865    1.0309922 0.0018556375 0.0018608036          845 
   46400   0.66919741   -7.3011738    1.0482053 0.0018825526 0.0018561866          846 
   46500   0.65960406   -7.3144041    1.0527921 0.0018867242 0.0018518872          834 
   46600   0.65868578    -7.319057    1.0591642 0.0018940704 0.0018476991          840 
   46700   0.66135002   -7.3467744    1.0579117 0.0018877796 0.0018435706          846 
   46800   0.66566001   -7.3052842    1.0710908 0.0019072129 0.0018396308          847 
   46900   0.62523538   -7.2521157     1.067467 0.0018967074 0.0018358676          844 
   47000   0.64746191   -7.3109874    1.0666328  0.001891193 0.0018320815          848 
   47100    0.6625108    -7.291246    1.0618662 0.0018787441 0.0018280788          842 
   47200    0.6741808   -7.2878866    1.0673037 0.0018843639 0.0018242312          843 
   47300   0.65167353   -7.3140485    1.0408777 0.0018338225 0.0018198948          850 
   47400    0.6326185   -7.3175853    1.0451767 0.0018375118  0.001815367          847 
   47500   0.63991301   -7.2623842    1.0465299 0.0018360173 0.0018109542          841 
   47600   0.67655071   -7.3225693    1.0426267 0.0018253269 0.0018065298          840 
   47700   0.63799456   -7.3097718    1.0297908 0.0017990754 0.0018017479          839 
   47800   0.63920637   -7.3146623    1.0434557 0.0018191347 0.0017970629          843 
   47900   0.64702405    -7.300257    1.0585412 0.0018415817 0.0017927676          843 
   48000   0.61866415   -7.2997291    1.0533887 0.0018287998 0.0017886728          839 
   48100    0.6510913   -7.2963447    1.0532951 0.0018248356 0.0017844253          847 
   48200   0.66711929   -7.3304661    1.0587817 0.0018305354  0.001780339          843 
   48300   0.63155324   -7.3236341    1.0632739 0.0018344961 0.0017763189          832 
   48400   0.67746547   -7.3234363    1.0628808  0.001830029 0.0017723002          848 
   48500   0.66160514   -7.3014188    1.0597309 0.0018208435 0.0017683769          838 
   48600   0.64670806   -7.3040134    1.0728143 0.0018395307 0.0017644695          840 
   48700   0.63001431   -7.3468751    1.0636503 0.0018200723 0.0017605996          830 
   48800   0.65843647   -7.2831352    1.0615548 0.0018127643 0.0017566446          845 
   48900   0.66796151   -7.3334482    1.0702319 0.0018238444 0.0017527625          848 
   49000   0.64535727   -7.3400187      1.06288 0.0018076191 0.0017488722          846 
   49100   0.65777151   -7.3169285    1.0561453 0.0017925074 0.0017447508          845 
   49200   0.65165735   -7.3112694    1.0564449 0.0017893714 0.0017406102          837 
   49300   0.66384526   -7.2991888    1.0518191 0.0017779228  0.001736428          843 
   49400   0.63478902   -7.3307965    1.0465938 0.0017655091   0.00173212          842 
   49500   0.63933066   -7.3062484    1.0366063 0.0017451284 0.0017275853          828 
   49600   0.63355534   -7.2536028    1.0352703 0.0017393653 0.0017229241          835 
   49700   0.66526237   -7.3049432    1.0339549 0.0017336602 0.0017182639          832 
   49800   0.66718864   -7.2972065    1.0196895 0.0017063077 0.0017135227          843 
   49900   0.66255238    -7.339634    1.0213509 0.0017056628 0.0017086255          846 
   50000   0.64454077   -7.3502104    1.0273154 0.0017121922 0.0017038068          832 
   50100   0.64382838   -7.2969906    1.0300351 0.0017132985  0.001699153          841 
   50200   0.66515055   -7.3121298    1.0340829  0.001716605 0.0016944999          836 
   50300   0.64664089   -7.3091935    1.0469827 0.0017345637 0.0016901164          827 
   50400   0.63877392   -7.3099423     1.049838 0.0017358432 0.0016858634          835 
   50500   0.65801823   -7.3371283    1.0568476  0.001743973 0.0016817658          836 
   50600   0.65437893   -7.3215176      1.07057 0.0017631258 0.0016778928          827 
   50700   0.62188103   -7.3001779    1.0673726 0.0017543928  0.001674235          834 
   50800   0.64149654   -7.3129055    1.0858092  0.001781183 0.0016706694          834 
   50900   0.65160324   -7.3130424    1.0745321 0.0017592208 0.0016671896          835 
   51000   0.63369884   -7.3234254    1.0514221 0.0017180099 0.0016633095          840 
   51100   0.65310559   -7.3053041    1.0567768 0.0017233803 0.0016592108          839 
   51200   0.65989829   -7.2809871    1.0498223 0.0017086952 0.0016551869          833 
   51300    0.6378575   -7.3010594    1.0428716 0.0016940733 0.0016509615          840 
   51400   0.66689156   -7.3194405    1.0322544 0.0016735641 0.0016465259          848 
   51500   0.63896491   -7.2808718     1.031824 0.0016696181  0.001642042          851 
   51600   0.65228642   -7.2849789    1.0445315 0.0016869049 0.0016376311          851 
   51700   0.64165972   -7.3170957    1.0519897 0.0016956637 0.0016335133          844 
   51800   0.63414054   -7.2971689     1.045746 0.0016823456 0.0016294023          847 
   51900    0.6707299   -7.3166292    1.0376133 0.0016660458 0.0016251176          847 
   52000   0.61789634   -7.2385852    1.0412133  0.001668611 0.0016208394          827 
   52100   0.63700172   -7.2870329    1.0386804  0.001661357 0.0016165213          835 
   52200   0.63221507   -7.3299514    1.0288577 0.0016424931 0.0016121074          829 
   52300   0.67594728   -7.3169978    1.0233517 0.0016305795 0.0016074639          847 
   52400   0.67809592   -7.3107561    1.0276786 0.0016343489 0.0016029603          842 
   52500   0.65630089   -7.3167572    1.0262784 0.0016290134  0.001598536          838 
   52600   0.65627295   -7.3361739       1.0367 0.0016424272 0.0015941691          841 
   52700   0.66551324   -7.3066871    1.0475281 0.0016564328 0.0015900429          843 
   52800   0.65715196   -7.3464458    1.0578741 0.0016696245 0.0015861556          850 
   52900   0.64045464   -7.2964007    1.0438091 0.0016443117 0.0015821745          846 
   53000   0.64544668   -7.2992997     1.053596 0.0016565974 0.0015781756          841 
   53100    0.6756826   -7.2773863    1.0525699 0.0016518674 0.0015742636          842 
   53200   0.66891687    -7.313395    1.0503973 0.0016453592 0.0015703419          836 
   53300    0.6509774   -7.3144898    1.0490857 0.0016402216 0.0015664548          840 
   53400   0.67040385   -7.3243913    1.0688547 0.0016680005 0.0015626773          833 
   53500   0.66971288   -7.3199678    1.0703759 0.0016672522 0.0015592383          844 
   53600   0.66664186   -7.3355159    1.0625821 0.0016520244 0.0015556662          852 
   53700   0.65758257   -7.3164012    1.0527369 0.0016336699 0.0015519094          849 
   53800   0.66740076   -7.3212193    1.0700711 0.0016574831 0.0015482767          835 
   53900   0.64269282    -7.313469    1.0607816 0.0016400457 0.0015446973          840 
   54000   0.65272397   -7.3079354    1.0555269 0.0016288995 0.0015409688          830 
   54100   0.64995652   -7.3139396    1.0487422 0.0016154377 0.0015371581          838 
   54200   0.62902213   -7.3220448    1.0558013 0.0016233107 0.0015333019          849 
   54300    0.6211426   -7.3293676    1.0573345 0.0016226741 0.0015296254          842 
   54400   0.63684168    -7.297777    1.0599939 0.0016237651 0.0015259262          843 
   54500   0.63601663   -7.2884037    1.0612445  0.001622698 0.0015223579          839 
   54600   0.66037301   -7.3347913    1.0666062 0.0016279093 0.0015187574          851 
   54700   0.65820678   -7.3091974    1.0682341 0.0016274133 0.0015153371          849 
   54800   0.63473072   -7.3386751    1.0635458 0.0016173141 0.0015118222          839 
   54900   0.65525374   -7.3096545    1.0649988 0.0016165738 0.0015082869          847 
   55000   0.64468059   -7.3105905    1.0680858 0.0016183118 0.0015047981          842 
   55100   0.65630596   -7.3344146    1.0752237 0.0016261702 0.0015014569          838 
   55200   0.61990886   -7.2865078    1.0672717 0.0016112194 0.0014979917          844 
   55300   0.65648307   -7.3463065     1.061482  0.001599581 0.0014945046          844 
   55400    0.6426239   -7.3569095    1.0472005 0.0015752113 0.0014908291          846 
   55500   0.66478975   -7.2966907    1.0571733 0.0015873473 0.0014871733          835 
   55600   0.67213108   -7.3574229    1.0607777 0.0015898946  0.001483602          842 
   55700   0.62473769    -7.327491    1.0547171 0.0015779729 0.0014799724          831 
   55800   0.67647317   -7.3309258    1.0600791 0.0015831528 0.0014763857          837 
   55900   0.68133062   -7.2903884    1.0645812 0.0015870322 0.0014729016          842 
   56000    0.6455878   -7.3608621      1.06408 0.0015834523 0.0014694544          834 
   56100   0.66583865   -7.3442681     1.057004 0.0015701188 0.0014658937          837 
   56200   0.65193447   -7.2971413    1.0594318  0.001570925 0.0014623366          847 
   56300   0.64123091   -7.3277103     1.059229 0.0015678345 0.0014587923          841 
   56400   0.64188106   -7.3068878    1.0652876 0.0015740065 0.0014553293          844 
   56500   0.65127825   -7.3234487    1.0746791 0.0015850724 0.0014520671          840 
   56600   0.61552069   -7.3172425    1.0583113 0.0015581733 0.0014486997          841 
   56700   0.65502431   -7.3336446    1.0529504 0.0015475461 0.0014451062          846 
   56800   0.63341479   -7.2861006      1.05894 0.0015536092 0.0014414948          845 
   56900   0.62780864   -7.3406102    1.0629288 0.0015567206 0.0014381216          854 
   57000   0.64388646   -7.3366089     1.065544 0.0015578129 0.0014347097          841 
   57100   0.63119275   -7.2609129      1.06716 0.0015574431 0.0014313482          841 
   57200   0.66909997   -7.2749308    1.0723497  0.001562281 0.0014281135          840 
   57300   0.65255974   -7.3058462    1.0751002 0.0015635546 0.0014248748          836 
   57400   0.63608296   -7.3371659    1.0653743 0.0015467106 0.0014216434          840 
   57500   0.61652619   -7.3288888    1.0614353  0.001538312 0.0014182728          844 
   57600   0.68196628   -7.3057857      1.05175  0.001521629  0.001414857          847 
   57700   0.65169194   -7.2771638    1.0518424 0.0015191254 0.0014113543          829 
   57800   0.62628046   -7.2919588    1.0605911 0.0015291106 0.0014079106          823 
   57900   0.66816585    -7.261335    1.0553195 0.0015188824 0.0014045054          837 
   58000   0.65808968   -7.2964664    1.0428848 0.0014983977 0.0014010209          846 
   58100   0.64060957   -7.3232729    1.0509561 0.0015073954 0.0013973888          838 
   58200   0.65055702   -7.3000725    1.0518827 0.0015061322 0.0013939146          845 
   58300   0.64990802   -7.3116834    1.0668325 0.0015249178 0.0013905481          847 
   58400   0.62397578   -7.3048558    1.0645826 0.0015190961 0.0013873315          842 
   58500   0.64762037    -7.309324    1.0746922 0.0015309005 0.0013841843          843 
   58600     0.656953   -7.2865015    1.0764559 0.0015307962 0.0013811512          835 
   58700     0.641323   -7.3356726    1.0659579 0.0015132849 0.0013780372          844 
   58800   0.65386912   -7.3166559    1.0685199 0.0015143422 0.0013748748          832 
   58900   0.66772971   -7.3068194    1.0799012 0.0015278738 0.0013717455          833 
   59000   0.64675845   -7.2608555    1.0880959 0.0015368586 0.0013689175          830 
   59100   0.64053923   -7.2709887    1.0856332 0.0015307856 0.0013660914          834 
   59200   0.62752677   -7.3020721    1.0862913 0.0015291263 0.0013632493          844 
   59300    0.6173914    -7.337064    1.0869745 0.0015275077 0.0013603716          842 
   59400   0.66588028   -7.3489433    1.0823806 0.0015184913 0.0013575303          852 
   59500   0.66228751   -7.2717291    1.0770708 0.0015085025 0.0013545892          845 
   59600   0.67911819   -7.3110725     1.093268 0.0015286186 0.0013517217          839 
   59700   0.62913583   -7.3338456    1.0860285 0.0015159527 0.0013490055          847 
   59800   0.62600966   -7.3120488     1.078678 0.0015031744 0.0013460944          847 
   59900   0.64560348    -7.309074    1.0884517 0.0015142622  0.001343217          851 
   60000   0.70395809   -7.3190679    1.0896721 0.0015134334 0.0013404496          839 
   60100   0.63613472   -7.2479074    1.0896775 0.0015109228 0.0013377138          838 
   60200   0.65912046   -7.3423865    1.0822039 0.0014980674 0.0013349076          846 
   60300   0.64487744   -7.2971466     1.083237 0.0014970107 0.0013320239          844 
   60400   0.64872223   -7.2768631    1.0923173 0.0015070603 0.0013293003          846 
   60500   0.63383083   -7.3333154    1.0872012 0.0014975223 0.0013265804          851 
   60600   0.61047339   -7.3424134    1.0856982 0.0014929843 0.0013238118          858 
   60700   0.64068255     -7.29369    1.0827549  0.001486484  0.001320947          847 
   60800    0.6745453   -7.2992371    1.0921249 0.0014968817 0.0013181827          847 
   60900   0.62655254   -7.3104995    1.0891395 0.0014903387 0.0013154723          847 
   61000   0.64512186   -7.3047749    1.0941466 0.0014947358 0.0013128212          848 
   61100   0.64492514   -7.2732657     1.100513 0.0015009725 0.0013102129          850 
   61200   0.67660573   -7.2790899    1.0983197 0.0014955334 0.0013076814          845 
   61300   0.63962919   -7.3093674    1.1033981 0.0014999974 0.0013051244          851 
   61400   0.63423841   -7.3312562    1.1099437 0.0015064382 0.0013026724          848 
   61500   0.66191007   -7.3428201     1.113083 0.0015082425 0.0013003435          837 
   61600   0.66307696   -7.2864812     1.107626 0.0014984118 0.0012979678          834 
   61700   0.62946378   -7.3526009    1.1141392 0.0015047801 0.0012956127          839 
   61800   0.64488265   -7.3194005    1.1193757 0.0015094063 0.0012933392          842 
   61900   0.67781795   -7.2824569    1.1145182 0.0015004284  0.001291093          837 
   62000   0.61234944   -7.2697683      1.11384 0.0014970968 0.0012887847          841 
   62100   0.62455816   -7.3072969    1.1210103  0.001504308 0.0012865148          844 
   62200   0.66390172   -7.3197007    1.0950968 0.0014671715  0.001284097          842 
   62300    0.6164448   -7.2941413    1.0848321 0.0014510863 0.0012813753          844 
   62400   0.68157618   -7.3526865    1.0833095 0.0014467274 0.0012786258          847 
   62500    0.6873462     -7.31256    1.0962992 0.0014617323 0.0012759904          850 
   62600   0.64776165   -7.2507661    1.0800216 0.0014377284 0.0012732823          851 
   62700   0.64296985   -7.3492692    1.0820732 0.0014381621 0.0012705054          846 
   62800   0.64855345   -7.3467529    1.0867904 0.0014421316 0.0012677526          852 
   62900   0.65577522   -7.2882738    1.0985673 0.0014554416 0.0012651275          843 
   63000   0.64943079   -7.3218751     1.096258 0.0014500766 0.0012626299          840 
   63100   0.61579286   -7.3150554    1.0901461 0.0014397069 0.0012600473          844 
   63200   0.64241543   -7.3092372    1.0964209 0.0014457027 0.0012573965          840 
   63300   0.67652724   -7.2969223     1.088035 0.0014323789 0.0012548128          841 
   63400   0.64235919   -7.3131687    1.0674977 0.0014031252  0.001252038          847 
   63500   0.63338911   -7.3081022    1.0688983 0.0014027537 0.0012491047          841 
   63600    0.6502608   -7.3007733    1.0838771 0.0014201744 0.0012463051          834 
   63700   0.67318687   -7.2750723    1.0776576 0.0014098085 0.0012435918          839 
   63800    0.6610802   -7.3584938    1.0813409 0.0014124098 0.0012408502          838 
   63900   0.63478394    -7.338311    1.0677008  0.001392411 0.0012380564          834 
   64000   0.63897729   -7.3046334     1.072805 0.0013968815 0.0012351921          833 
   64100   0.65451428   -7.2933888    1.0774769  0.001400776 0.0012324433          837 
   64200   0.68323334   -7.3855937    1.0665768 0.0013844455 0.0012296391          844 
   64300   0.64425681   -7.3182457    1.0467452 0.0013565905 0.0012266194          842 
   64400   0.64114045   -7.2780278    1.0568762 0.0013675934 0.0012235238          840 
   64500   0.66795931   -7.3166945    1.0718756 0.0013848522 0.0012206436          841 
   64600   0.65216446   -7.3518885    1.0657686 0.0013748304 0.0012178298          845 
   64700   0.64457952   -7.2946336    1.0591769 0.0013642154   0.00121495          842 
   64800   0.63700964   -7.3056172    1.0718317 0.0013783844 0.0012121435          842 
   64900   0.64808087   -7.3378183    1.0901646 0.0013998004 0.0012095175          839 
   65000   0.62445338   -7.2773204    1.1013208 0.0014119497 0.0012070978          847 
   65100   0.63824304   -7.3403319    1.0979083 0.0014054126 0.0012047336          845 
   65200   0.64638149   -7.3024146    1.0933569 0.0013974397 0.0012023177          846 
   65300   0.65640178   -7.3112855    1.0969226 0.0013998501   0.00119987          841 
   65400   0.61842454    -7.346497    1.0993276 0.0014007741 0.0011975149          850 
   65500    0.6496852   -7.3324528    1.0853508 0.0013808534 0.0011950789          847 
   65600     0.651628   -7.3016709    1.0744094 0.0013648494 0.0011924573          847 
   65700   0.64232931   -7.2934018    1.0740855 0.0013623612 0.0011897474          845 
   65800   0.65938214   -7.2892058    1.0609082 0.0013436021 0.0011869728          846 
   65900    0.6554574   -7.3306873    1.0649687  0.001346698 0.0011841859          848 
   66000   0.65881367   -7.3211698    1.0724041 0.0013540456 0.0011814701          846 
   66100   0.68143431   -7.2971497    1.0800837 0.0013616789  0.001178859          842 
   66200   0.64921704    -7.323374    1.0624177 0.0013373838 0.0011761669          842 
   66300   0.64817094   -7.3049306    1.0757254 0.0013520933 0.0011734887          850 
   66400   0.60204981     -7.32887    1.0891244  0.001366873 0.0011709776          841 
   66500   0.63264722   -7.3026701    1.0829115  0.001357032 0.0011684736          851 
   66600   0.66100236   -7.2799467     1.077201 0.0013478491 0.0011659428          841 
   66700   0.64366939   -7.3024191    1.0812014 0.0013508263 0.0011633885          838 
   66800    0.6145207   -7.3278984    1.0882901 0.0013576473 0.0011609847          842 
   66900   0.64459258   -7.3002203     1.095027 0.0013640097 0.0011585751          848 
   67000   0.64735647   -7.2732615    1.0884794 0.0013538301 0.0011562228          844 
   67100   0.67059985   -7.3400488    1.0802341 0.0013415724 0.0011537607          848 
   67200   0.63525886   -7.2960828    1.0822638  0.001342093 0.0011512389          842 
   67300   0.65833135   -7.2927003    1.0819527 0.0013397135  0.001148784          844 
   67400   0.67438664   -7.2402829    1.0706023 0.0013236922 0.0011462235          849 
   67500   0.65434311   -7.2793304    1.0735066 0.0013253168 0.0011436614          839 
   67600   0.66095897   -7.3142866    1.0769541 0.0013276061 0.0011411491          844 
   67700   0.64319203   -7.3366138    1.0766862 0.0013253153 0.0011386408          843 
   67800   0.61822494    -7.319918    1.0857029 0.0013344431 0.0011361878          846 
   67900   0.66764891   -7.3061634    1.0760662 0.0013206507 0.0011337167          835 
   68000   0.64293684   -7.2793207    1.0810799 0.0013248528 0.0011312677          843 
   68100   0.61027026   -7.3295515    1.0807849 0.0013225464 0.0011288048          838 
   68200   0.65087319   -7.3255924    1.0915964 0.0013338177 0.0011263731          836 
   68300   0.64947403   -7.2731005    1.0874815 0.0013268442 0.0011240681          843 
   68400    0.6653181   -7.3310479    1.0838783 0.0013205145 0.0011217409          845 
   68500   0.63353912   -7.3217006    1.0769325 0.0013101368 0.0011193004          843 
   68600   0.64257525   -7.2649288    1.0979695 0.0013337821  0.001116985          837 
   68700   0.61414938   -7.2765226    1.0964456 0.0013299922 0.0011147609          839 
   68800   0.65449179   -7.3631608    1.0906105 0.0013209914 0.0011125263          850 
   68900   0.66560156   -7.2824519    1.0751896 0.0013004229 0.0011101445          841 
   69000   0.70095787   -7.3243696    1.0811616 0.0013057507 0.0011077592          848 
   69100   0.66377338   -7.3189868    1.0943254 0.0013197363 0.0011054475          840 
   69200   0.65920441   -7.3321072    1.0871795 0.0013092239 0.0011032124          838 
   69300   0.65591427    -7.268651    1.0924796 0.0013137081 0.0011009712          835 
   69400   0.65291098   -7.2811875    1.0826055 0.0012999585 0.0010986635          843 
   69500   0.63054199   -7.3343035    1.0763088 0.0012905382 0.0010963082          843 
   69600   0.63331314   -7.3025089      1.08137 0.0012947438 0.0010938914          845 
   69700   0.66041058   -7.2691205    1.0755662 0.0012859472 0.0010915541          844 
   69800   0.63671711   -7.2919985    1.0611012 0.0012668352 0.0010890757          844 
   69900   0.65565078   -7.3284576    1.0569555 0.0012600805 0.0010865102          841 
   70000   0.65543947    -7.264639    1.0507362 0.0012508764  0.001083909          849 
   70100   0.65810741   -7.2739183    1.0578811 0.0012575858 0.0010813238          845 
   70200   0.62960481   -7.3065165    1.0570905 0.0012548558 0.0010787411          843 
   70300   0.66380054    -7.297934    1.0756931 0.0012751222 0.0010763357          843 
   70400   0.64442176   -7.3219007    1.0646751 0.0012602688 0.0010739055          849 
   70500   0.62298388   -7.3114744    1.0655393 0.0012595027 0.0010714333          842 
   70600   0.65992021   -7.2820707    1.0748943  0.001268761 0.0010690314          841 
   70700   0.63575727   -7.3105405    1.0708685 0.0012622212 0.0010667097          842 
   70800   0.64412796   -7.3542808    1.0778394 0.0012686434 0.0010643666          837 
   70900   0.66107744   -7.3364819    1.0905089 0.0012817453  0.001062121          840 
   71000   0.63931686   -7.2929371    1.0948968 0.0012850902 0.0010600188          839 
   71100   0.63613714   -7.2770385    1.1088471 0.0012996332 0.0010579995          839 
   71200   0.68037618   -7.3091669    1.0977382  0.001284806 0.0010560266          838 
   71300    0.6783617   -7.3174445    1.1079385 0.0012949258 0.0010540497          842 
   71400   0.66486147   -7.3309125    1.1022192 0.0012864369 0.0010521006          835 
   71500   0.67434213   -7.3304796    1.0910539 0.0012716246 0.0010500629          832 
   71600   0.63257072   -7.3132079    1.0972425 0.0012770513 0.0010479945          840 
   71700   0.65875314   -7.3002987    1.0937095  0.001271164 0.0010459363          838 
   71800   0.64163892   -7.2669168    1.0927053 0.0012682281 0.0010438935          839 
   71900   0.63128998       -7.319    1.0796591 0.0012513435 0.0010417213          843 
   72000   0.65413045   -7.3106778    1.0804579 0.0012505299 0.0010395281          840 
   72100   0.66979902   -7.2791956    1.0705525 0.0012373469 0.0010372674          842 
   72200   0.66362382   -7.2818112    1.0777565 0.0012439479 0.0010350242          836 
   72300   0.64306638   -7.2914169    1.0745698 0.0012385543 0.0010328388          840 
   72400   0.63009081   -7.3489718    1.0698911 0.0012314584 0.0010305749          847 
   72500   0.64238561   -7.2841411    1.0565706 0.0012144489 0.0010282023          842 
   72600   0.65829182   -7.2711511    1.0652493  0.001222738 0.0010258519          837 
   72700   0.62620577   -7.3168988    1.0651127 0.0012208994 0.0010235378          837 
   72800   0.61640147   -7.3034868    1.0628171 0.0012165947 0.0010212239          839 
   72900   0.63789654   -7.3046197    1.0713164 0.0012246416 0.0010189287          846 
   73000    0.6915882   -7.3277292    1.0631094 0.0012135952  0.001016632          840 
   73100   0.69289623   -7.3064557    1.0558575 0.0012036679 0.0010142599          838 
   73200    0.6484556   -7.3040838    1.0536895 0.0011995554 0.0010118386          840 
   73300   0.65689171   -7.3212564    1.0625032  0.001207939 0.0010094968          848 
   73400   0.65389604   -7.2986552    1.0703004 0.0012151457 0.0010072248          844 
   73500   0.64597357    -7.342021    1.0767211 0.0012207723 0.0010050588          838 
   73600   0.67053493   -7.3045326    1.0821506 0.0012252611  0.001002965          841 
   73700   0.65544247   -7.3526999    1.0864777 0.0012284912 0.0010009213          843 
   73800   0.63859298   -7.2991699    1.0914164 0.0012324034 0.00099889786          846 
   73900    0.6672856   -7.2891751    1.0956654 0.0012355271 0.0009969789          842 
   74000   0.66170779   -7.3039055    1.0776365 0.0012135547 0.00099494236          847 
   74100   0.68196381   -7.3470083    1.0778784  0.001212189 0.00099286026          840 
   74200   0.65819955   -7.3232609    1.0781917 0.0012109071 0.00099077105          841 
   74300    0.6774669   -7.3410984    1.0716871 0.0012019819 0.0009886382          839 
   74400   0.64004268   -7.3068243    1.0663041  0.001194337 0.00098644659          839 
   74500    0.6282967   -7.3191531     1.071909 0.0011990033 0.0009842899          842 
   74600   0.65372479   -7.3284091    1.0807307 0.0012072506 0.00098218187          840 
   74700   0.66048583   -7.3155069    1.0823181 0.0012074052 0.00098015693          844 
   74800   0.63432998   -7.3147334    1.0683469  0.001190226 0.00097807555          851 
   74900   0.64348757   -7.2828406    1.0716771 0.0011923422 0.00097593204          841 
   75000   0.67251548   -7.2914335    1.0874596 0.0012082885 0.00097389943          842 
   75100   0.66714983   -7.3327797     1.077832 0.0011959964 0.00097188982          841 
   75200   0.67317587   -7.3136814    1.0876771  0.001205316 0.00096991587          842 
   75300   0.65076682   -7.3020786    1.0947138 0.0012115027 0.0009680136          843 
   75400   0.63569209   -7.2797151    1.1098828  0.001226661 0.0009662454          851 
   75500   0.66233373   -7.3372738    1.1181655 0.0012341782 0.00096459772          849 
   75600   0.64366494   -7.3562538     1.110736 0.0012243563 0.00096293424          845 
   75700   0.58850442   -7.3276006    1.1066572 0.0012182488 0.00096118573          841 
   75800   0.64668281   -7.3011053    1.1076705 0.0012177555 0.00095950952          845 
   75900   0.66700127    -7.312416     1.107561 0.0012160309 0.00095778357          842 
   76000   0.59701993   -7.3268823    1.1191862 0.0012271778 0.00095613465          844 
   76100   0.63180612   -7.2965855    1.1171551  0.001223341 0.00095453575          837 
   76200   0.65926478   -7.2658523    1.1073529 0.0012110159 0.00095283734          837 
   76300    0.6644847   -7.3463545    1.0962744 0.0011973289 0.00095108301          842 
   76400   0.66736922   -7.3384347    1.0935363 0.0011927752 0.00094925729          841 
   76500   0.64808069   -7.3100597    1.0890551 0.0011863345 0.00094738611          846 
   76600   0.64754367   -7.2999884     1.080324 0.0011752872 0.00094545932          848 
   76700   0.64545899   -7.3427919    1.0711765 0.0011638162 0.00094344396          845 
   76800   0.65410952   -7.3346418    1.0784864 0.0011702327 0.00094143003          847 
   76900   0.64635853   -7.2920743    1.0781682  0.001168366 0.00093947659          843 
   77000   0.64409928   -7.3006199    1.0767316  0.001165294 0.00093752466          851 
   77100   0.65299923   -7.3438866    1.0736338 0.0011604342 0.00093554451          849 
   77200   0.64058309   -7.3027069    1.0848207 0.0011710068 0.00093362155          844 
   77300   0.67934678    -7.327791    1.0979815   0.00118368 0.00093179498          844 
   77400   0.63672293   -7.2946737     1.087741 0.0011711251 0.00093001176          843 
   77500   0.61784065   -7.3231624    1.0902042 0.0011722625 0.00092818625          846 
   77600   0.63344856    -7.313393    1.1071466 0.0011889461 0.00092642963          843 
   77700   0.66572238   -7.3073188    1.1108287 0.0011913649 0.00092478375          844 
   77800    0.6561204   -7.3429357    1.1151342 0.0011944453 0.00092322776          838 
   77900   0.68648685   -7.3554889    1.1146537 0.0011923981 0.00092163098          843 
[...]
   83200   0.65053328   -7.2850858    1.0906684 0.0010924163 0.00083239469          840 
   83300   0.64025188   -7.3360855    1.1040052  0.001104447 0.00083089419          843 
   83400   0.65009368    -7.310888    1.1062407 0.0011053564 0.00082943543          843 
   83500   0.66149169   -7.2799721    1.1088882 0.0011066749 0.00082800122          846 
   83600    0.6391378   -7.2671796    1.1111253  0.001107581 0.00082659421          834 
   83700   0.64381187   -7.2966507    1.1132479  0.001108371 0.00082520732          834 
   83800   0.65290039   -7.2970837    1.1221306 0.0011158817 0.00082385104          831 
   83900   0.65711131   -7.2965067    1.1261011 0.0011184953 0.00082257492          840 
   84000   0.64563107   -7.3107623    1.1186512  0.001109773 0.00082126644          838 
   84100   0.65979193   -7.3056873    1.1262005 0.0011159339 0.00081998625          838 
   84200   0.68485274   -7.2730731    1.1182651 0.0011067548 0.00081870005          839 
   84300   0.64326883   -7.2743105    1.0995459 0.0010869374 0.0008173021          850 
   84400    0.6481281   -7.3120813    1.0901534 0.0010763758 0.00081579915          848 
   84500    0.6195284   -7.3298222    1.0715323  0.001056738 0.00081417808          843 
   84600    0.6623586   -7.2908221    1.0581324 0.0010422896 0.00081244049          842 
   84700   0.63876419   -7.2936921    1.0627234 0.0010455759 0.0008106575          840 
   84800   0.62171935   -7.3044799    1.0655169 0.0010470881 0.00080892827          838 
   84900   0.64880742   -7.2765644    1.0686623 0.0010489422 0.0008072466          845 
   85000   0.67883972   -7.2707593    1.0660084 0.0010451063 0.00080554568          837 
   85100   0.65517444   -7.2745556    1.0721167 0.0010498597 0.00080388427          840 
   85200   0.62796669   -7.2979483     1.092432 0.0010684976 0.00080232446          849 
   85300   0.65027803   -7.3246835    1.0977714 0.0010724613 0.00080086827          839 
   85400    0.6594259   -7.2505637    1.0978353 0.0010712678 0.00079942194          835 
   85500   0.65748299   -7.2972067    1.0958511  0.001068081 0.0007979681          839 
   85600   0.66139527   -7.3278128    1.0985047 0.0010694166 0.00079656566          846 
   85700   0.67525102   -7.2950963    1.1089441 0.0010783199 0.00079516589          849 
   85800    0.6444786   -7.3200952    1.1222163 0.0010899537 0.0007938842          846 
   85900   0.63201729   -7.3230324    1.1087079   0.00107558 0.00079257133          843 
   86000   0.66670069   -7.3086251    1.1058975 0.0010716061 0.00079120518          854 
   86100   0.63690827   -7.3083774    1.1146965 0.0010788777 0.00078987642          845 
   86200   0.67141334   -7.3085309    1.1313703 0.0010937454 0.00078864834          849 
   86300   0.64634617   -7.2763955    1.1233495  0.001084733 0.00078743817          852 
   86400    0.6329126    -7.310843    1.1278482 0.0010878166 0.00078625383          852 
   86500    0.6482257   -7.3000715    1.1334253 0.0010919319 0.00078508553          849 
   86600   0.64456075   -7.3058253    1.1274851 0.0010849548 0.00078393824          846 
   86700   0.61565883   -7.3048985     1.105752 0.0010628143 0.00078263995          841 
   86800   0.66418915   -7.3299049    1.1115864 0.0010671912 0.0007813227          843 
   86900   0.65777016   -7.2832213     1.102641 0.0010573849 0.00078000046          852 
   87000    0.6562664   -7.3521975    1.1023122 0.0010558546 0.00077866845          846 
   87100   0.65539876   -7.3170144    1.0976419  0.001050174 0.00077728382          846 
   87200   0.64283014   -7.2884869    1.0742711 0.0010266352 0.00077580832          840 
   87300   0.68430869   -7.2846196    1.0705454 0.0010219028 0.00077425027          844 
   87400   0.64233866   -7.2841629    1.0784156 0.0010282376 0.00077269981          844 
   87500   0.64693222   -7.3148857    1.0671663 0.0010163488 0.00077115655          842 
   87600   0.63599377   -7.3421987    1.0634172 0.0010116221 0.00076955898          847 
   87700   0.64150831   -7.3001258    1.0637469 0.0010107819 0.00076792315          841 
   87800   0.66946076   -7.3302476    1.0599278 0.0010060058 0.00076630742          848 
   87900   0.63927782   -7.3078726    1.0638456 0.0010085756 0.00076470931          840 
   88000    0.6433013    -7.313872    1.0687807 0.0010121029 0.00076312728          843 
   88100   0.67629345   -7.3044089    1.0630529 0.0010055362 0.00076156272          842 
   88200   0.63260415   -7.2995726    1.0612531 0.0010026957 0.00075996728          846 
   88300   0.64805048   -7.3672092    1.0637691 0.0010039346 0.00075836153          842 
   88400    0.6626885     -7.31177    1.0718945 0.0010104586 0.00075681388          842 
   88500   0.65777087   -7.2754073     1.084821 0.0010214887 0.00075537385          852 
   88600   0.64171809    -7.332973     1.087142 0.0010225188 0.00075396013          843 
   88700   0.65523669   -7.3333815    1.0864946 0.0010207578 0.00075258238          836 
   88800   0.63527821   -7.2964932    1.0952439  0.001027819 0.00075120083          837 
   88900   0.68082525   -7.3178281    1.1011981 0.0010322442 0.00074989452          845 
   89000   0.64470557   -7.3082424    1.1026194 0.0010324152 0.00074861828          839 
   89100    0.6497847   -7.3385307    1.0963259 0.0010253703 0.00074729945          843 
   89200   0.63477436    -7.266729    1.1071323 0.0010343164 0.00074603489          831 
   89300   0.67646766   -7.2695132    1.0805271 0.0010083306 0.00074471692          836 
   89400   0.64669207   -7.3339766    1.0768534 0.0010037783 0.0007432612          839 
   89500   0.63884127   -7.3440339    1.0814136 0.0010069028 0.00074182677          839 
   89600   0.67894225    -7.297664    1.0842372 0.0010084052 0.00074043338          841 
   89700   0.65581702   -7.2811771    1.0889373 0.0010116474 0.00073908515          838 
   89800   0.64114043    -7.321194    1.0810565 0.0010032076 0.00073770659          841 
   89900   0.62991326    -7.360965    1.0943901 0.0010144513 0.00073633947          853 
   90000   0.61507811   -7.3298077    1.0957962 0.0010146261 0.00073505133          845 
   90100    0.6188129   -7.2629678    1.1007794  0.001018109 0.00073378419          841 
   90200   0.66316639   -7.3189536     1.113102 0.0010283647 0.00073256973          837 
   90300    0.6432168   -7.3133064    1.1172263  0.001031032 0.00073139534          843 
   90400   0.65782461   -7.3181461    1.1173306 0.0010299876 0.00073026446          848 
   90500   0.63833269   -7.3212395    1.1070398 0.0010193737 0.00072909034          843 
   90600   0.66768113   -7.3640928    1.1128977 0.0010236366 0.00072790037          842 
   90700   0.65444603   -7.3041863    1.1125334 0.0010221733 0.00072671512          844 
   90800   0.64931474   -7.3282665    1.1166058  0.001024785 0.00072556139          841 
   90900   0.63665708   -7.3169063    1.1182133 0.0010251313 0.00072442595          842 
   91000   0.66316061   -7.2639375    1.1227248 0.0010281363 0.00072332202          853 
   91100    0.6615254   -7.2789153    1.1060083 0.0010117163 0.00072218561          844 
   91200   0.65948279   -7.3331524    1.0967286 0.0010021277 0.00072095933          847 
   91300   0.64227599   -7.2946691    1.0940356 0.00099857207 0.00071966007          850 
   91400   0.63696823   -7.3441639    1.1019027 0.0010046523 0.00071842046          840 
   91500   0.64122914   -7.3204465    1.1091845 0.0010101863 0.00071721204          841 
   91600   0.69012012   -7.2837076    1.1030743 0.0010035246 0.00071604638          842 
   91700   0.65287194   -7.2950485    1.1048753  0.001004067 0.00071486969          845 
   91800   0.63708041    -7.334571    1.0993577 0.0009979645 0.00071364795          835 
   91900   0.66832143   -7.2819532    1.1137202 0.0010099023 0.00071246452          834 
   92000   0.63941995   -7.2532683    1.1024268 0.00099857501 0.00071130652          842 
   92100   0.64764425   -7.3290581    1.0968337 0.00099243004 0.00071009088          841 
   92200   0.67434391   -7.3135834    1.1096833 0.0010029675 0.00070890592          833 
   92300   0.68073716    -7.281868    1.1357407 0.0010254069 0.00070784052          840 
   92400    0.6622469   -7.3513678    1.1435488 0.0010313391 0.00070687666          842 
   92500    0.6544015   -7.3090862    1.1452553 0.0010317616 0.0007059768          846 
   92600   0.66081901   -7.2331702    1.1454495 0.0010308221 0.0007050489          845 
   92700   0.63361157   -7.3110846    1.1362558 0.0010214454 0.00070410307          846 
   92800   0.63303987   -7.3350755    1.1348888 0.0010191171 0.00070311817          835 
   92900   0.66620519   -7.2881253    1.1334842 0.0010167601 0.00070213368          844 
   93000   0.62276146   -7.2459439     1.138182 0.0010198763 0.00070117067          841 
   93100   0.67446149   -7.3963804    1.1117314 0.00099510512 0.00070010519          844 
   93200   0.64716216   -7.3397205    1.1165301 0.00099832806 0.00069899543          838 
   93300   0.64545404   -7.3001774    1.1297317 0.0010090494 0.00069796189          838 
   93400   0.62209351   -7.3034166    1.1228912 0.0010018658 0.00069694439          836 
   93500   0.66183869   -7.2937286    1.1184218 0.00099681085 0.00069586078          842 
   93600    0.6496713   -7.3277154    1.1194217 0.0009966361 0.00069479027          838 
   93700   0.67145443   -7.3133325    1.1279596 0.0010031657 0.00069375949          840 
   93800   0.63162546   -7.3097395    1.1287454 0.0010027944 0.00069276926          839 
   93900   0.65096196   -7.3254898    1.1278698 0.0010009494 0.00069175935          844 
   94000   0.65837578   -7.2871175    1.1234679 0.00099598216 0.00069074447          841 
   94100   0.65110019   -7.2805749    1.1103497 0.00098330652 0.00068965956          843 
   94200   0.63215981   -7.3244623    1.1052767 0.00097777484 0.00068853325          844 
   94300   0.65277089   -7.3149256    1.1003782 0.00097240918 0.00068738702          844 
   94400   0.63156458   -7.2909011    1.0986491 0.00096985265 0.00068621122          842 
   94500   0.67603703   -7.2874586    1.1089662 0.00097792437 0.00068507835          846 
   94600   0.64064585   -7.2964007    1.0982533 0.00096745353 0.0006839491          843 
   94700   0.62081324    -7.313727    1.0895084 0.00095873671 0.00068272455          840 
   94800   0.65981847    -7.300173    1.1052315 0.00097154671 0.00068155274          849 
   94900   0.63879295   -7.2604359    1.1046368 0.00097000074 0.00068041317          838 
   95000   0.66185641   -7.3502841    1.1108552 0.00097443438 0.0006792996          845 
   95100   0.64998123   -7.3209428     1.115394 0.00097738692 0.00067825147          842 
   95200   0.67055288    -7.289264    1.1009533 0.00096371962 0.00067713543          842 
   95300   0.63834636   -7.3351894    1.1039538 0.00096533211 0.00067600157          848 
   95400   0.64439934   -7.3085379    1.1140255 0.00097311799 0.00067492248          847 
   95500    0.6383596   -7.3278944    1.1084641 0.0009672462 0.0006738628          844 
   95600    0.6262682   -7.3733186    1.1055607 0.00096370356 0.00067275238          846 
   95700   0.64420587   -7.3221881    1.1137948 0.0009698666 0.00067168475          839 
   95800   0.62750653   -7.2546891    1.1155887 0.00097041468 0.00067063623          838 
   95900   0.62656434   -7.2760912    1.1067448 0.00096171779 0.00066955763          846 
   96000   0.62085099   -7.2825156    1.1145576 0.00096749791 0.00066847806          852 
   96100   0.66269212   -7.3118576    1.1166069 0.00096826824 0.00066745781          836 
   96200    0.6512835   -7.2719447    1.1081574 0.00095994232 0.00066638407          843 
   96300   0.66680091   -7.3562645    1.1052805 0.00095645591 0.00066529706          846 
   96400   0.64097211   -7.3293253     1.108766 0.00095847683 0.00066423115          847 
   96500   0.67734292   -7.3315479    1.0902523 0.00094149593 0.00066310103          851 
   96600   0.64906135   -7.3285973    1.0721628 0.00092491611 0.00066188449          849 
   96700   0.67628855   -7.3140964    1.0738542 0.00092541726 0.00066060718          850 
   96800   0.67884625   -7.3101017    1.0734385 0.00092410341 0.00065937701          852 
   96900   0.63581235   -7.3488098     1.074691 0.00092422683 0.00065811356          848 
   97000   0.64662868   -7.2986038     1.089318 0.00093584021 0.00065691046          844 
   97100   0.65538923   -7.2880575    1.0948893 0.00093965781 0.00065577344          839 
   97200   0.63371001   -7.2635131    1.0876907 0.00093251944 0.00065464232          847 
   97300   0.63496374   -7.3658658    1.0778549 0.00092313715 0.00065346055          846 
   97400   0.64260098   -7.3345098    1.0742476 0.00091910303 0.00065223296          851 
   97500   0.63145542   -7.2866462     1.090689 0.00093221285 0.00065105427          850 
   97600   0.65288878   -7.2820508    1.0929023 0.00093314744 0.00064992419          838 
   97700    0.6413711   -7.3564016      1.08989 0.00092962296 0.00064876942          848 
   97800   0.64172336   -7.3057276    1.0964586 0.00093426939 0.00064764438          843 
   97900   0.67807436   -7.2879118    1.0834818 0.00092226918 0.00064653553          857 
   98000   0.64179895   -7.3315965    1.0827736 0.00092072586 0.00064536647          850 
   98100   0.66010998   -7.3192487    1.0814801 0.00091868845 0.00064419932          841 
   98200    0.6775939   -7.2757996    1.0938227 0.00092822702 0.00064306448          843 
   98300   0.66581462   -7.3374029    1.0987069 0.00093142326 0.00064198064          848 
   98400   0.63282602   -7.3157787    1.1072624 0.00093772218 0.00064092871          842 
   98500   0.66946663   -7.2840657    1.1118023 0.00094061105 0.00063992186          843 
   98600    0.6621323   -7.3138543    1.1074385 0.00093596899 0.00063894488          842 
   98700   0.64518574   -7.3292148    1.0984789 0.00092745603 0.00063788689          847 
   98800   0.64131008   -7.3330414    1.0977199 0.00092587714 0.0006368245          842 
   98900   0.66750665   -7.2899757    1.0926825 0.00092069641 0.00063576262          852 
   99000   0.62518202   -7.3249427    1.0884638 0.00091621529 0.00063465608          850 
   99100   0.62999211   -7.3054851    1.0900845 0.00091665364 0.00063354269          840 
   99200    0.6715001    -7.312727    1.0950836 0.00091992911 0.00063246151          848 
   99300   0.66916325   -7.3150642    1.0855281 0.00091098362 0.00063137872          847 
   99400   0.65976623   -7.3414602    1.0927167 0.00091609383 0.00063027676          846 
   99500   0.62305414   -7.2974489    1.0814354 0.00090572482 0.00062917282          847 
   99600   0.63053033   -7.2875036    1.0760475 0.00090030748 0.00062801215          852 
   99700   0.64579922   -7.2808252    1.0798259 0.00090256263 0.00062684182          844 
   99800   0.64650589   -7.2991147    1.0787307 0.00090074371 0.00062572041          842 
   99900   0.65884302   -7.2945451     1.074308 0.00089615281 0.00062456275          850 
  100000   0.64792847   -7.3585807    1.0670365 0.00088919711 0.00062337979          853 
  100100   0.63516228   -7.2989065    1.0679559 0.00088907414 0.00062217636          855 
  100200   0.66133876   -7.3048739    1.0734087 0.00089272182 0.00062100065          849 
  100300   0.64035207   -7.2849656      1.08541 0.00090180291 0.00061989245          850 
  100400   0.63584416   -7.2827061    1.0821774 0.00089822158 0.00061878158          848 
  100500   0.62769832   -7.3192303    1.0945066 0.00090755109 0.00061771016          849 
  100600   0.65875354   -7.2806649    1.1053352 0.00091561895 0.00061670992          854 
  100700    0.6566647   -7.2730899    1.1024563 0.00091232725 0.00061572719          848 
  100800   0.66491136   -7.3307849    1.1001477 0.00090951364 0.0006147443          855 
  100900   0.64991242   -7.2845913    1.1157382 0.00092148842 0.00061379541          855 
  101000   0.65430952   -7.3503739    1.1219791 0.00092572534 0.00061291395          848 
  101100   0.66105549   -7.3063463    1.1205615 0.00092364119 0.00061204704          848 
  101200    0.6732513    -7.277471     1.109416 0.0009135507 0.00061114496          851 
  101300    0.6551599   -7.3125431    1.1083049 0.00091173486 0.00061020286          847 
  101400   0.65138782   -7.3070728     1.105547 0.00090856922 0.00060925068          841 
  101500    0.6762338   -7.3311903    1.1033034 0.00090583199 0.00060828136          843 
  101600   0.63881464   -7.3157759    1.0875681 0.00089203419 0.00060727748          836 
  101700   0.64940112   -7.3116732    1.0831298 0.00088752028 0.00060620767          849 
  101800   0.64808418   -7.2625738    1.0912066 0.00089326016 0.00060516691          843 
  101900   0.65815366   -7.2587475     1.101421 0.00090073679 0.00060418522          845 
  102000   0.62612596   -7.2718423    1.0942897 0.00089402753 0.00060319781          843 
  102100   0.63502469   -7.3271846    1.1063735 0.00090301462 0.00060223483          845 
  102200   0.63480113   -7.3343396    1.1043505 0.00090048149 0.00060129009          846 
  102300   0.67847052   -7.3115145     1.101272 0.00089709349 0.0006003305          844 
  102400   0.64978804   -7.2617705    1.1156628 0.00090792873 0.00059941707          845 
  102500    0.6516911   -7.2926049    1.1310986 0.00091959239 0.00059859858          845 
  102600   0.68084617   -7.3017347    1.1304721 0.00091818718 0.00059779773          849 
  102700   0.66972308   -7.3280899    1.1132973 0.00090335709 0.00059694871          847 
  102800   0.65015946   -7.3286526    1.0985322 0.00089050922 0.00059601266          853 
  102900    0.6553792   -7.3039908    1.0958873 0.00088750189 0.00059502183          848 
  103000   0.64748749   -7.3333909    1.0970839 0.00088760835 0.00059404323          848 
  103100   0.66316527   -7.2818772    1.1092313 0.00089656588 0.00059313196          848 
  103200     0.668571   -7.2995414    1.1086982 0.00089526662 0.00059223164          847 
  103300   0.60992299   -7.3001228    1.1020575 0.00088904287 0.00059129896          853 
  103400   0.63443746   -7.3142612    1.1153629 0.00089890628 0.0005903977          854 
  103500   0.66555264   -7.2596067    1.1192706 0.00090118408 0.00058953251          846 
  103600   0.68008747   -7.3293249    1.1264668 0.0009061026 0.00058873234          848 
  103700   0.67384549   -7.3601008    1.1202768 0.0009002546  0.000587898          847 
  103800   0.65984333   -7.2699251    1.1166236 0.00089645441 0.00058706012          851 
  103900   0.65659826   -7.2733321    1.1246568 0.00090203462 0.00058625234          852 
  104000   0.65524908     -7.33069    1.1132772 0.00089204902 0.00058539855          852 
Loop time of 191.031 on 12 procs for 100000 steps with 864 atoms

Performance: 90456.380 tau/day, 523.474 timesteps/s
99.4% CPU use with 12 MPI tasks x no OpenMP threads

MPI task timing breakdown:
Section |  min time  |  avg time  |  max time  |%varavg| %total
---------------------------------------------------------------
Pair    | 10.538     | 11.362     | 12.529     |  18.5 |  5.95
Neigh   | 1.0003     | 1.0325     | 1.0551     |   2.0 |  0.54
Comm    | 5.571      | 6.7366     | 7.6246     |  25.7 |  3.53
Output  | 3.8249     | 3.826      | 3.8333     |   0.1 |  2.00
Modify  | 166.83     | 167        | 167.2      |   0.8 | 87.42
Other   |            | 1.071      |            |       |  0.56

Nlocal:        72.0000 ave          75 max          69 min
Histogram: 2 2 0 1 0 2 2 0 0 3
Nghost:        1644.75 ave        1654 max        1638 min
Histogram: 1 2 2 2 0 1 2 1 0 1
Neighs:        8937.58 ave       10010 max        7922 min
Histogram: 1 1 2 1 0 2 3 0 1 1
FullNghs:      17872.4 ave       18660 max       17098 min
Histogram: 2 2 0 1 0 3 1 0 0 3

Total # of neighbors = 214469
Ave neighs/atom = 248.22801
Neighbor list builds = 4467
Dangerous builds = 0

#clear
#
#next RN
#
#jump SELF



Total wall time: 0:03:11
