
units lj                  # Use reduced LJ style units
atom_style atomic         # Uncharged point particles
atom_modify map hash      # Needed for indexing of clusters etc
                          # Used to be able to find where atoms are in relation to each other.

# Define a lattice with which to populate the simulation cell. With units
# set to 'lj' the second argument to the lattice command is the reduced
# density rho* and the spacings are multiples of that required to acheive
# that density. Also define a simulation cell called 'box' in lattice units
# and fill it with atoms. Here we're creating a box which is ten lattice
# constants in each direction.
lattice fcc 1.0 spacing 1 1 1                 # All equal sizes - gives the right reduced density.
Lattice spacing in x,y,z = 1.5874011 1.5874011 1.5874011

region box block 0 6 0 6 0 6 units lattice # Defines a region, "box", in lattice units
create_box 1 box                              # Creates a simulation box as specified above,
Created orthogonal box = (0.0000000 0.0000000 0.0000000) to (9.5244063 9.5244063 9.5244063)
  2 by 2 by 3 MPI processor grid
                                              # with one type of atom
create_atoms 1 box                            # Creates particles on lattice points
Created 864 atoms
  using lattice units in orthogonal box = (0.0000000 0.0000000 0.0000000) to (9.5244063 9.5244063 9.5244063)
  create_atoms CPU = 0.001 seconds


# Set the mass of the first (and only) atom type.
mass 1 1.0

# Lennard-Jones interactions between particles, 3.5 sigma cut-off. Apply
# long range tail corrections to energy and pressure and set all coefficients
# to unity since we work in reduced units here. Note that this doesn't shift
# the potential such that it goes to zero at the cutoff. That would require
# pair_modify('shift', 'yes').
pair_style lj/cut  3.5      # non-GPU version
pair_modify tail  yes
pair_coeff 1  1  1.0  1.0   # Intearaction between 1 and 1 set with epsilon = 1 and sigma = 1

write_data data.*
System init for write_data ...
Neighbor list info ...
  update every 1 steps, delay 10 steps, check yes
  max neighbors/atom: 2000, page size: 100000
  master list distance cutoff = 3.8
  ghost atom cutoff = 3.8
  binsize = 1.9, bins = 6 6 6
  1 neighbor lists, perpetual/occasional/extra = 1 0 0
  (1) pair lj/cut, perpetual
      attributes: half, newton on
      pair build: half/bin/atomonly/newton
      stencil: half/bin/3d
      bin: standard

#############################
#   M E L T   S Y S T E M   #
#############################

velocity all create 2.4 2750902 mom yes dist gaussian # Assign velocities
                                                    # Temperature 2.4, random number seed, zero linear momentum
						                                                        # Gaussian distribution

timestep 0.002   # simulation timestep
thermo 100       # output thermodynamic data every 100 steps

# Define a fix  in this case with index 1 applied to all
# particles in the simulation. This fix is for simulations
# in the anisotropic NPT ensemble. Note that we use the MTK
# correction.
fix 1 all npt temp 2.4 2.4 0.1 iso 5.68 5.68 0.5 mtk yes tchain 5 pchain 5 # Use NPT ensemble
                                                                         # Set temperature and pressure and damping
                                                                         # Numbers of thermostats in chain and in barostat
run 1000         # run for 10000 steps
Per MPI rank memory allocation (min/avg/max) = 3.633 | 3.633 | 3.634 Mbytes
Step Temp E_pair E_mol TotEng Press Volume 
       0          2.4   -8.3859253            0    -4.790092     -2.24275          864 
     100    1.3007594   -6.4407842            0   -4.4919034    5.3582762    891.69205 
     200    1.5828213   -6.0796178            0   -3.7081338    6.4338598    907.46239 
     300    1.7629056     -5.73851            0   -3.0972122    5.5953229    954.02439 
     400    1.8733232   -5.2785237            0   -2.4717912    6.0585808    994.36537 
     500      2.02574   -4.9360708            0   -1.9009777    5.7478153    1042.8978 
     600    2.2112838   -4.6895875            0   -1.3765009    5.7138268    1079.0368 
     700    2.3146746   -4.4629638            0  -0.99497044    5.6088298    1118.0222 
     800    2.4734008     -4.39503            0   -0.6892229    5.7937797    1123.7282 
     900    2.4206618   -4.2767239            0  -0.64993368    5.5531987    1146.9555 
    1000    2.3618098   -4.2459295            0  -0.70731524    5.7000582    1143.3852 
Loop time of 0.231933 on 12 procs for 1000 steps with 864 atoms

Performance: 745042.212 tau/day, 4311.587 timesteps/s
99.8% CPU use with 12 MPI tasks x no OpenMP threads

MPI task timing breakdown:
Section |  min time  |  avg time  |  max time  |%varavg| %total
---------------------------------------------------------------
Pair    | 0.068402   | 0.089794   | 0.13441    |   8.7 | 38.72
Neigh   | 0.011825   | 0.014468   | 0.019801   |   2.7 |  6.24
Comm    | 0.057678   | 0.10733    | 0.13137    |   9.0 | 46.28
Output  | 0.00022059 | 0.00023083 | 0.00029725 |   0.0 |  0.10
Modify  | 0.01775    | 0.018215   | 0.019239   |   0.3 |  7.85
Other   |            | 0.001896   |            |       |  0.82

Nlocal:        72.0000 ave          80 max          66 min
Histogram: 2 1 2 2 1 0 2 0 0 2
Nghost:        1314.75 ave        1327 max        1295 min
Histogram: 1 0 0 2 3 0 0 1 2 3
Neighs:        6211.67 ave        7136 max        5326 min
Histogram: 2 0 0 2 1 4 1 0 0 2

Total # of neighbors = 74540
Ave neighs/atom = 86.273148
Neighbor list builds = 80
Dangerous builds = 2

# Equilibrate just above the melting temperature to avoid step fn in T

fix 1 all npt temp 1.25 1.25 0.1 iso 5.68 5.68 0.5 mtk yes tchain 5 pchain 5
run 1000
Per MPI rank memory allocation (min/avg/max) = 3.634 | 3.634 | 3.634 Mbytes
Step Temp E_pair E_mol TotEng Press Volume 
    1000    2.3618098   -4.2459295            0  -0.70731524    5.7000582    1143.3852 
    1100    1.8617945   -4.5967525            0    -1.807293    5.9593679    1083.5566 
    1200      1.66126   -5.0091582            0   -2.5201524    5.9308167    1028.0056 
    1300    1.4533368   -5.3154554            0   -3.1379734    5.5185254    997.93023 
    1400    1.3100587   -5.5224566            0    -3.559643    5.2858775     978.0358 
    1500    1.3306301   -5.7450087            0   -3.7513736    5.2687861    956.68836 
    1600    1.2302857    -5.777427            0   -3.9341343     5.385203    950.58576 
    1700    1.2545134   -5.8251615            0   -3.9455694    5.6370291    940.07281 
    1800    1.2669685   -5.8434457            0   -3.9451925    6.1076728    931.13358 
    1900    1.2975362   -5.8185374            0   -3.8744858    5.5765884    942.23221 
    2000    1.2225624   -5.8503078            0   -4.0185867    5.1330896    948.19804 
Loop time of 0.155162 on 12 procs for 1000 steps with 864 atoms

Performance: 1113676.504 tau/day, 6444.887 timesteps/s
99.8% CPU use with 12 MPI tasks x no OpenMP threads

MPI task timing breakdown:
Section |  min time  |  avg time  |  max time  |%varavg| %total
---------------------------------------------------------------
Pair    | 0.071791   | 0.076881   | 0.082439   |   1.4 | 49.55
Neigh   | 0.0099471  | 0.01062    | 0.01131    |   0.4 |  6.84
Comm    | 0.045828   | 0.051935   | 0.057911   |   1.9 | 33.47
Output  | 0.00016241 | 0.00016582 | 0.00018662 |   0.0 |  0.11
Modify  | 0.01355    | 0.013825   | 0.014082   |   0.1 |  8.91
Other   |            | 0.001735   |            |       |  1.12

Nlocal:        72.0000 ave          79 max          65 min
Histogram: 1 1 0 4 0 1 1 3 0 1
Nghost:        1466.08 ave        1476 max        1447 min
Histogram: 1 1 0 0 2 0 0 4 1 3
Neighs:        7466.67 ave        8131 max        6694 min
Histogram: 1 0 2 0 3 1 3 0 0 2

Total # of neighbors = 89600
Ave neighs/atom = 103.70370
Neighbor list builds = 67
Dangerous builds = 0


# Small amount of linear quench

fix 1 all npt temp 1.25 ${temp} 0.1 iso 5.68 5.68 0.5 mtk yes tchain 5 pchain 5
fix 1 all npt temp 1.25 0.95 0.1 iso 5.68 5.68 0.5 mtk yes tchain 5 pchain 5
run 2000
Per MPI rank memory allocation (min/avg/max) = 3.634 | 3.634 | 3.634 Mbytes
Step Temp E_pair E_mol TotEng Press Volume 
    2000    1.2225624   -5.8503078            0   -4.0185867    5.1330896    948.19804 
    2100    1.2579507    -5.859913            0   -3.9751709    5.4231595    941.52652 
    2200    1.2329292   -5.9027178            0   -4.0554644    5.8393242    929.23808 
    2300    1.2026006   -5.9019197            0   -4.1001066    6.3045045    921.10864 
    2400    1.1953727   -5.9449072            0   -4.1539234    5.9515403     923.1609 
    2500    1.1216817   -5.9607307            0   -4.2801556     5.553517    926.26069 
    2600    1.1268088   -5.9893005            0   -4.3010436    5.6281758    922.75906 
    2700    1.1923242   -5.9585951            0   -4.1721789    5.7120166    924.89782 
    2800    1.1677915   -6.0091257            0   -4.2594659    5.6933236    922.16874 
    2900    1.0939073   -5.9965942            0   -4.3576324    5.7753619    920.01522 
    3000    1.0796966     -6.09033            0   -4.4726596    5.7035149    913.40664 
    3100    1.1115719   -6.1318979            0   -4.4664698    5.4203606    914.63203 
    3200    1.0318819   -6.1183341            0   -4.5723027    5.4136816    915.37488 
    3300    1.0700296   -6.1509655            0   -4.5477787    5.4121798    912.17414 
    3400    1.0335851    -6.168716            0   -4.6201327    5.3876039    912.04296 
    3500    1.0128179   -6.1668959            0   -4.6494274     5.773079    903.81256 
    3600    1.0379489   -6.2141918            0   -4.6590705    5.9046136    898.22713 
    3700    1.0053705   -6.2603936            0   -4.7540833    5.8650182    895.70203 
    3800   0.97651871   -6.2790614            0   -4.8159787    5.8869927    894.57093 
    3900   0.95930402   -6.2858991            0   -4.8486086    5.5825751    896.38021 
    4000   0.94591969   -6.2809295            0   -4.8636922     5.487489    898.23324 
Loop time of 0.323747 on 12 procs for 2000 steps with 864 atoms

Performance: 1067500.156 tau/day, 6177.663 timesteps/s
99.9% CPU use with 12 MPI tasks x no OpenMP threads

MPI task timing breakdown:
Section |  min time  |  avg time  |  max time  |%varavg| %total
---------------------------------------------------------------
Pair    | 0.15569    | 0.16538    | 0.1759     |   1.7 | 51.08
Neigh   | 0.017681   | 0.018702   | 0.01955    |   0.4 |  5.78
Comm    | 0.095793   | 0.10694    | 0.11648    |   2.2 | 33.03
Output  | 0.0003544  | 0.00036345 | 0.0004067  |   0.0 |  0.11
Modify  | 0.027839   | 0.028271   | 0.028766   |   0.2 |  8.73
Other   |            | 0.004089   |            |       |  1.26

Nlocal:        72.0000 ave          77 max          67 min
Histogram: 1 0 1 0 3 3 1 1 1 1
Nghost:        1525.92 ave        1532 max        1520 min
Histogram: 4 0 1 1 0 0 2 0 0 4
Neighs:        7908.25 ave        8680 max        7176 min
Histogram: 1 1 3 0 1 1 1 2 0 2

Total # of neighbors = 94899
Ave neighs/atom = 109.83681
Neighbor list builds = 116
Dangerous builds = 0

#############################
# F R E E Z E  S Y S T E M  #
#############################

# Define solid atoms. This closely follows ten Wolde  Ruiz-Montero and Frenkel  Faraday Discuss  1996  104  93-110
# Compute components of the per-atom q6 vector
compute q6 all orientorder/atom degrees 1 6 components 6 nnn NULL cutoff 1.3 # compute the Q6 parameter.
                                                                             # Use all neighbours within 1.3 unit cell.

# get number of connections
compute coord_number all coord/atom orientorder q6 0.5

# An atom is solid if it has 8 or more connections (of a possible 14)
variable is_solid atom c_coord_number>=8
group solid dynamic all var is_solid    # Must be dynamic to update
dynamic group solid defined

# do clustering
compute cluster solid cluster/atom 1.3 # Create a cluster where all atoms within are solid and max 1.3 units from another member

# define chunks one chunk per cluster
compute clus_chunks solid chunk/atom c_cluster nchunk every compress yes  # Says which atoms are in which chunk

# count the size of each chunk
compute size_chunks solid property/chunk clus_chunks count


# Find the maximum entry in the vector of chunk sizes
variable max_n equal max(c_size_chunks)


# Thermo style which includes this variable
# thermo_style custom step temp pe vol v_max_n

thermo ${N}  # Print the thermo information every 100 steps
thermo 100  

# Reset the npt fix at a lower temperature (below freezing)

compute myRDF all rdf 100
fix 2 all ave/time 1 50 100 c_myRDF[*] file pcf.rdf mode vector


compute msd all msd com yes
variable twopoint equal c_msd[4]/6/(step*dt+1.0e-6)
fix 9 all vector 10 c_msd[4]
variable fit equal slope(f_9)/6/(10*dt)
thermo_style custom step temp pe c_msd[4] v_twopoint v_fit v_max_n


fix 1  all npt temp  ${temp} ${temp}  0.1  iso  5.68  5.68  0.5  mtk yes tchain  5  pchain  5
fix 1  all npt temp  0.95 ${temp}  0.1  iso  5.68  5.68  0.5  mtk yes tchain  5  pchain  5
fix 1  all npt temp  0.95 0.95  0.1  iso  5.68  5.68  0.5  mtk yes tchain  5  pchain  5

dump dmp2 all dcd ${N} traj.dcd
dump dmp2 all dcd 100 traj.dcd
dump dmp3 all dcd ${N} traj_unwrap.dcd
dump dmp3 all dcd 100 traj_unwrap.dcd
dump_modify dmp3 unwrap yes


# fix rnuntil all halt ${N} v_max_n >= 3980 error soft message no   # Stop when solidified

run 100000 # 5000000  # Run for this many steps
Neighbor list info ...
  update every 1 steps, delay 10 steps, check yes
  max neighbors/atom: 2000, page size: 100000
  master list distance cutoff = 3.8
  ghost atom cutoff = 3.8
  binsize = 1.9, bins = 6 6 6
  5 neighbor lists, perpetual/occasional/extra = 1 4 0
  (1) pair lj/cut, perpetual
      attributes: half, newton on
      pair build: half/bin/atomonly/newton
      stencil: half/bin/3d
      bin: standard
  (2) compute orientorder/atom, occasional
      attributes: full, newton on
      pair build: full/bin/atomonly
      stencil: full/bin/3d
      bin: standard
  (3) compute coord/atom, occasional
      attributes: full, newton on
      pair build: full/bin/atomonly
      stencil: full/bin/3d
      bin: standard
  (4) compute cluster/atom, occasional
      attributes: full, newton on
      pair build: full/bin/atomonly
      stencil: full/bin/3d
      bin: standard
  (5) compute rdf, occasional, copy from (1)
      attributes: half, newton on
      pair build: copy
      stencil: none
      bin: none
Per MPI rank memory allocation (min/avg/max) = 9.697 | 9.700 | 9.702 Mbytes
Step Temp PotEng c_msd[4] v_twopoint v_fit v_max_n 
    4000   0.94591969   -6.2809295 7.8794787e-31 1.6415579e-32 8.3333333e+20            2 
    4100   0.92923791   -6.3559539  0.048125378 0.00097815797  0.043608985            3 
    4200   0.95818511   -6.3577991  0.083250377  0.001651793  0.037054753            2 
    4300   0.90500117   -6.3582329   0.11547821 0.0022379495  0.032564312            4 
    4400    0.9818305   -6.3802793   0.13808358 0.0026152191   0.02890843            3 
    4500     1.011137   -6.3507578   0.16029579 0.0029684402  0.026617964            3 
    4600   0.97806806   -6.3083456   0.18355849 0.0033253346  0.024588986            1 
    4700   0.92055571   -6.3286203   0.19510141 0.0034592444  0.022920183            2 
    4800   0.97042976   -6.3656385   0.21163957 0.0036742976    0.0210748            2 
    4900   0.95689423   -6.2670807    0.2415179 0.0041074468  0.020221797            3 
    5000   0.91100458   -6.3041538   0.26759057 0.0044598424  0.020002077            2 
    5100   0.93748791   -6.3833678   0.28025179 0.0045792771  0.019622837            2 
    5200   0.93940593   -6.3699419   0.31121423 0.0049874071  0.019347545            3 
    5300   0.92677576   -6.4297136   0.32903864 0.0051735631  0.019235625            8 
    5400    0.9346039   -6.3441403   0.34874022  0.005381793  0.019015359            9 
    5500   0.98651342   -6.3785323   0.37780081 0.0057242541  0.018981357            9 
    5600   0.95044541   -6.3624881    0.4098843 0.0060994682  0.019086654            3 
    5700   0.97293682   -6.3586971   0.42739886 0.0062485208  0.019202267            1 
    5800   0.97077184   -6.3635744   0.44453191 0.0063869522  0.019207843            6 
    5900   0.89402832   -6.3710555    0.4620951 0.0065267664  0.019103915            4 
    6000   0.97860432   -6.4073893   0.46526684 0.0064620389  0.018914079            5 
    6100   0.95085436   -6.3419352   0.47894332  0.006542941  0.018574643            5 
    6200   0.96163116   -6.3377739   0.50322686 0.0067638013  0.018309762            4 
    6300   0.97821617   -6.3875247   0.51983483 0.0068761215  0.018105224            9 
    6400   0.99635221   -6.3296274   0.53984888 0.0070292817  0.017888411            7 
    6500   0.95263611   -6.3190033   0.56445739 0.0072366327  0.017746353            8 
    6600   0.95225192   -6.3409104   0.58971633 0.0074459127   0.01766789            3 
    6700    1.0095924    -6.333723   0.60764902 0.0075578231  0.017600568            4 
    6800   0.97371578   -6.3616222   0.63306821 0.0077581882  0.017544488            9 
    6900   0.92879002   -6.3319397   0.66889854 0.0080784842  0.017559368            4 
    7000   0.95583141   -6.3710444   0.68509123 0.0081558474  0.017608499            7 
    7100   0.94382225   -6.3964921   0.70045022 0.0082212462  0.017595168            6 
    7200   0.96090391    -6.298712   0.72093213 0.0083441213   0.01758844            7 
    7300   0.94208642   -6.3437687   0.73921499 0.0084385267  0.017562532            6 
    7400    0.9603169   -6.3493218   0.75145498 0.0084623302  0.017524194            3 
    7500   0.93261962   -6.3607445   0.77908925 0.0086565466  0.017491703            2 
    7600   0.94403974   -6.3612281   0.78783329 0.0086385224  0.017447191            6 
    7700    0.9551881   -6.3283745   0.79524873 0.0086065874  0.017370253            7 
    7800   0.93901053   -6.3351715   0.80783054 0.0086306677  0.017244266            3 
    7900   0.95443302   -6.3992888   0.82779775 0.0087320433  0.017149477            1 
    8000   0.96657116   -6.3727437   0.85178083 0.0088727164  0.017066548            2 
    8100   0.98426904   -6.3623403   0.87930768 0.0090463748  0.017016167            4 
    8200   0.96623827   -6.3735826   0.90249385 0.0091716849  0.016993711            2 
    8300   0.92255756   -6.3925805   0.92414864 0.0092786002   0.01695716            4 
    8400   0.98658558   -6.3998588   0.95234465 0.0094478631  0.016943522            6 
    8500    1.0229609   -6.3818436   0.99777472 0.0097821045  0.016982711            6 
    8600   0.92294405   -6.3206539    1.0386977    0.0100649  0.017063001            9 
    8700   0.94076551    -6.375536    1.0649352  0.010200528  0.017164353            4 
    8800   0.96012253   -6.3850835    1.0660998  0.010095641   0.01723009            5 
    8900   0.92514635   -6.3711417    1.0901046  0.010206971   0.01727425            2 
    9000   0.96710579   -6.3333202    1.1061094  0.010241754  0.017314391            5 
    9100   0.97160937   -6.3325141    1.1211609  0.010267041  0.017335961            7 
    9200   0.94399884   -6.3248788    1.1457517  0.010378185  0.017355437            9 
    9300   0.88640493   -6.3475621    1.1579422  0.010375826  0.017357663            4 
    9400   0.98875398   -6.4039919    1.1842247  0.010498446  0.017362559            9 
    9500   0.92668408   -6.3800075    1.1989956  0.010517504  0.017378571            5 
    9600   0.90791477   -6.4133199    1.2110365  0.010512469  0.017367228           11 
    9700   0.90531934   -6.3377611      1.25233  0.010758848  0.017372941            6 
    9800    0.9734863   -6.3495494    1.2652092  0.010758581   0.01738552            2 
    9900   0.97565064   -6.4064801    1.2799623  0.010774093  0.017384558            2 
   10000   0.91668533   -6.3543203    1.3119459  0.010932882  0.017393248            3 
   10100   0.96432401   -6.3715697    1.3496998  0.011136137  0.017420817            7 
   10200   0.96528042    -6.288546    1.3819103  0.011290117  0.017459048            3 
   10300    0.9479087   -6.3183568    1.4106666   0.01141316  0.017507972            7 
   10400   0.91287613   -6.3507042    1.4147569  0.011336192  0.017545678            2 
   10500   0.94320287   -6.3533698    1.4302752   0.01135139  0.017561935            5 
   10600   0.90131527   -6.3990794    1.4377362  0.011302957  0.017567399            1 
   10700   0.92581216   -6.3936895     1.468545  0.011437266  0.017564946            5 
   10800   0.95330145   -6.3444619    1.4752278   0.01138293  0.017564248            9 
   10900   0.94742982   -6.4483019    1.4904172  0.011394627  0.017553624            7 
   11000   0.93834699   -6.4009767    1.5055689  0.011405825  0.017536162            9 
   11100   0.95305259   -6.3740261     1.535261  0.011525983   0.01752119            1 
   11200   0.97261683   -6.3916546    1.5356502  0.011425968  0.017501589            3 
   11300   0.93474084   -6.4004016    1.5453756  0.011396574  0.017468271            2 
   11400   0.92736978   -6.4378624    1.5773562  0.011530381  0.017433912            3 
   11500   0.93279632   -6.4667263    1.5932388  0.011545208  0.017407538            5 
   11600   0.91555711   -6.4438647    1.6206605  0.011642675  0.017388723            4 
   11700   0.94211496   -6.3743456    1.6607146  0.011828451  0.017383815            8 
   11800   0.91351218   -6.3838001    1.7131356  0.012098414  0.017397942            6 
   11900   0.94069969   -6.3755723    1.7346285  0.012147258  0.017426725            3 
   12000   0.98256402   -6.3655337     1.744793  0.012116618  0.017449662            7 
   12100   0.96011936   -6.3173825    1.7638069   0.01214743  0.017469305            3 
   12200   0.94889374    -6.377114    1.7679686  0.012076287  0.017476633            7 
   12300    1.0166627   -6.4366375    1.7818306  0.012072022  0.017480358            4 
   12400   0.92537852    -6.365078    1.8048499  0.012129367   0.01747903            2 
   12500   0.93223889   -6.3571639    1.8206806   0.01213787  0.017474942            4 
   12600    1.0011255   -6.3870524     1.852784  0.012253862  0.017470522            1 
   12700   0.94244626   -6.3833387    1.8674284  0.012253466  0.017465608            3 
   12800   0.95529145    -6.362263     1.886141  0.012279564  0.017460975            5 
   12900   0.96907916   -6.3142647    1.8982989  0.012262912  0.017452541            3 
   13000   0.96405197   -6.3980318    1.9156876  0.012280048  0.017440111            2 
   13100   0.92546277   -6.3690252    1.9342618  0.012304464  0.017429039            4 
   13200   0.95683584   -6.3456313    1.9591463  0.012368347  0.017417559            5 
   13300   0.99060503   -6.3661291    1.9620456  0.012293518  0.017403412            9 
   13400   0.96692609   -6.4084314    1.9598878  0.012188356  0.017378742            5 
   13500   0.93819505   -6.3646652    1.9926071  0.012300043  0.017353916            2 
   13600   0.92612191   -6.3603198    2.0179833  0.012365093  0.017331577            7 
   13700   0.97678858   -6.3645423    2.0485907  0.012461014  0.017316548            5 
   13800   0.98086621   -6.4343019    2.0640326  0.012463965   0.01730931            6 
   13900    0.9520729   -6.4496915    2.0582138  0.012339411  0.017287407            3 
   14000   0.97264822   -6.3857032    2.1006068  0.012503611  0.017265447            5 
   14100     0.922572   -6.3659893    2.1335727  0.012609767  0.017256529            5 
   14200   0.96675379   -6.3542135    2.1545854   0.01264428  0.017247444            2 
   14300   0.95341429   -6.3042196    2.1690139   0.01263994  0.017243276            2 
   14400   0.96082917   -6.3630358    2.1643537  0.012525194  0.017229718            5 
   14500   0.91369497    -6.321765    2.1877755  0.012573422  0.017212132            5 
   14600    0.9885323   -6.3946276    2.2196677  0.012669336  0.017200817            4 
   14700   0.98286888    -6.342034    2.2477435   0.01274231   0.01719483            1 
   14800   0.96441199   -6.3778223    2.2741973  0.012805165  0.017191546            5 
   14900   0.97036271   -6.2997076    2.3031979   0.01288142  0.017189052           12 
   15000   0.96347249   -6.3367732    2.3349072  0.012971706  0.017190548            7 
   15100   0.96989066   -6.3566406    2.3397124   0.01291232  0.017189406            7 
   15200   0.96501867   -6.3341107     2.350889  0.012888645  0.017185537            2 
   15300   0.93270918   -6.3237439    2.3750716   0.01293612  0.017179501            2 
   15400   0.93220577   -6.3676521    2.3694997  0.012821968  0.017166424            2 
   15500   0.92694163   -6.3408266    2.4231749  0.013027822  0.017155161            3 
   15600   0.99860097   -6.3211692    2.4913194   0.01330833  0.017161715            3 
   15700   0.95173879   -6.1683355    2.5557884  0.013565755  0.017184095            4 
   15800   0.96670668   -6.2895945    2.5790842  0.013602764  0.017214934            4 
   15900   0.98192398   -6.3268315    2.5950005  0.013600631  0.017242749            2 
   16000   0.93508495    -6.352158    2.5991831  0.013537412  0.017269063            2 
   16100   0.94568551   -6.3222392    2.6089016  0.013503631  0.017286901            2 
   16200   0.95712031   -6.3373953    2.6293691  0.013525561  0.017304249            5 
   16300   0.95727073   -6.3040476    2.6754185  0.013678008  0.017321168            4 
   16400   0.93170545   -6.3842794    2.6834983  0.013635662  0.017341017            7 
   16500   0.98824191   -6.3829217    2.6914537    0.0135932    0.0173553            8 
   16600   0.90132942    -6.325971    2.7031645  0.013570102  0.017365719           15 
   16700   0.96335696   -6.3810579    2.7179591   0.01356267  0.017372851            4 
   16800   0.96543198    -6.386767    2.7333291   0.01355818  0.017377682            4 
   16900   0.93867269    -6.317753    2.7273624  0.013448532  0.017378052            3 
   17000    0.9379706   -6.2728391     2.749148  0.013476215  0.017374174            2 
   17100   0.95632769   -6.3789379     2.760621  0.013453318  0.017369598            2 
   17200   0.93235952    -6.433478    2.7922487  0.013528337  0.017363062            3 
   17300   0.94333355   -6.4073809    2.8186129  0.013577133  0.017359569            9 
   17400    0.9267284   -6.3658024    2.8627582  0.013710527  0.017359931            8 
   17500   0.99995023   -6.3883267    2.8836449  0.013731642  0.017364906            3 
   17600   0.90823599   -6.3683685    2.9014443  0.013737899  0.017365813            2 
   17700   0.97209871    -6.388162    2.9191802  0.013743786  0.017368368            2 
   17800   0.92457032   -6.4242615    2.9153076  0.013648443   0.01736989            5 
   17900   0.96943803   -6.4178074    2.9363716  0.013670259  0.017367141            4 
   18000   0.93522909   -6.4057042    2.9544093  0.013677821  0.017361388            3 
   18100   0.95041935   -6.3840945     2.984884   0.01374256  0.017357719            3 
   18200   0.88823919   -6.4014302    2.9929757  0.013704101  0.017353545            2 
   18300   0.94135145   -6.3532768    3.0192639  0.013748925  0.017348959            7 
   18400   0.98137394   -6.3441728    3.0252592  0.013701355  0.017345231            3 
   18500   0.95917218   -6.4116021    2.9999278  0.013513188   0.01733292            5 
   18600   0.96805392   -6.4065788    3.0442642  0.013639176  0.017317728            7 
   18700   0.96783827   -6.3063257    3.0668801  0.013667023  0.017308711            4 
   18800   0.97892766   -6.2494829    3.0941105  0.013715029  0.017303743            8 
   18900   0.96222253   -6.3437407    3.0966228  0.013653539  0.017297867            6 
   19000    0.9335113   -6.3871238    3.1422835  0.013781945  0.017288529            7 
   19100   0.98383182   -6.3527456    3.1832637  0.013888585  0.017285301            2 
   19200   0.89181168   -6.3103242    3.1740639  0.013776318  0.017278546            5 
   19300   0.95730661   -6.3466941    3.2013092  0.013822578  0.017269798            4 
   19400   0.99846439   -6.2875003    3.2236438  0.013847267  0.017265151            5 
   19500    0.9201597   -6.2680626    3.2713224   0.01398001  0.017264222            5 
   19600   0.96518832   -6.3372518    3.3229357  0.014128127  0.017268778            1 
   19700   0.95765178   -6.2984098    3.3351868  0.014108235  0.017274737       -1e+20 
   19800   0.95353502   -6.3658339    3.3053335  0.013911336  0.017273264            6 
   19900   0.95024821   -6.3769047    3.3095562  0.013859113  0.017264301            2 
   20000      0.96246   -6.3600701    3.3458973  0.013941238  0.017255407            3 
   20100   0.94498527   -6.2798883    3.3548302  0.013908914  0.017248764            2 
   20200   0.93247072   -6.2874643    3.4066049   0.01405365  0.017245251            1 
   20300   0.97420496   -6.3708678    3.4246332  0.014058428  0.017245861            4 
   20400   0.94576818   -6.3185581    3.4489806  0.014088973  0.017246387            1 
   20500   0.97296472   -6.3624862    3.4672262  0.014094415  0.017244349            2 
   20600   0.92905647   -6.3667489     3.477644  0.014068139  0.017242399            2 
   20700    0.9439852   -6.3232697    3.5113035  0.014135682  0.017241849            1 
   20800   0.98166039   -6.3257636     3.533309  0.014155885  0.017243211            2 
   20900   0.96225124   -6.3354889    3.5612429  0.014199533  0.017245952            6 
   21000   0.94373955   -6.2668043    3.5644486  0.014144637  0.017247721            1 
   21100   0.94367301    -6.362848    3.5714841  0.014105387  0.017247423            6 
   21200   0.95402431   -6.3959305    3.5949247  0.014130993  0.017243057            1 
   21300   0.95003773   -6.3187153    3.6147072  0.014142046  0.017239805            7 
   21400   0.89703813   -6.3376178    3.6435375   0.01418823  0.017237502            6 
   21500   0.97310064   -6.3403206    3.6733751  0.014237888  0.017235122            5 
   21600   0.96211386   -6.3056522     3.661081  0.014124541  0.017233377            3 
   21700   0.98390048   -6.3841468    3.6926267  0.014180594  0.017231622            6 
   21800   0.97055781   -6.2537745    3.6920443  0.014113319  0.017228427           16 
   21900   0.99684839    -6.348166    3.6736782  0.013978988  0.017220032           17 
   22000   0.90381966   -6.3274326    3.6943431  0.013993723  0.017206414           10 
   22100   0.96460368   -6.3533151    3.7276279  0.014055912   0.01719476            5 
   22200   0.94408522    -6.387474    3.7808697  0.014192453  0.017188464            4 
   22300   0.95018558   -6.3136184    3.8306704  0.014314911  0.017184541            4 
   22400   0.91528432   -6.3477754    3.8260647  0.014233872    0.0171814            1 
   22500   0.93880888   -6.3892684    3.8676694  0.014324701  0.017176286            1 
   22600   0.97549945   -6.3469315    3.8679178  0.014262234  0.017172251            2 
   22700   0.93224847   -6.3743383    3.8813846  0.014248842  0.017168057            3 
   22800   0.91766257    -6.404368    3.8876779  0.014209349   0.01716069            3 
   22900   0.95021922   -6.3697855    3.9358958  0.014322764  0.017154159            2 
   23000   0.95265098   -6.4147941    3.9690719  0.014380695  0.017150171            2 
   23100   0.89791913    -6.405593    4.0196702  0.014500974  0.017149291            1 
   23200   0.94002022   -6.3641185    4.0238724  0.014453564  0.017150583            4 
   23300   0.95525644   -6.3429186    4.0425391  0.014458294   0.01715034            5 
   23400   0.94360684   -6.3099908    4.0609875  0.014462206   0.01715148            3 
   23500    0.9457387   -6.3951377    4.0676189   0.01442418   0.01714911            7 
   23600   0.96675521   -6.3307995    4.0629753  0.014346664  0.017146354            4 
   23700    0.9580173   -6.3396673    4.0803769  0.014347316  0.017143231            2 
   23800   0.95583838    -6.368815    4.1403689   0.01449709  0.017142668            2 
   23900   0.94316931    -6.349534    4.1575958  0.014496498   0.01714285            4 
   24000    0.9141962   -6.3960957    4.1636123  0.014456987  0.017139892            4 
   24100   0.90789041   -6.4112182     4.179412  0.014451632  0.017135637            4 
   24200   0.92882499   -6.3965671     4.231688  0.014571928  0.017132253            2 
   24300   0.98673483    -6.385333    4.2664551   0.01463119  0.017134237            4 
   24400    0.9756708   -6.3845539     4.268181  0.014577121   0.01713657            3 
   24500   0.93070561   -6.3731049    4.2928631  0.014601575  0.017137013            4 
   24600   0.94406048   -6.3169887    4.3458165    0.0147216  0.017141591            4 
   24700   0.94779604   -6.3712261    4.3605474  0.014711698  0.017144865            4 
   24800   0.95062243   -6.4023449    4.3855487  0.014736386  0.017149007            3 
   24900   0.94591718   -6.3658895    4.3792969  0.014656281  0.017150625            2 
   25000   0.92754898   -6.3917107    4.4003238  0.014667746  0.017150983            5 
   25100   0.94449285   -6.4093245    4.4426251  0.014749751  0.017153397            6 
   25200    0.9625992   -6.3699551    4.4755928  0.014800241  0.017157205            2 
   25300   0.92192922   -6.4302527    4.4911348  0.014792934  0.017160416            5 
   25400   0.92557626   -6.3822375     4.529725  0.014861302  0.017164998            9 
   25500   0.97283232    -6.374747    4.5412729  0.014840761  0.017170877           10 
   25600   0.95421333   -6.4363147    4.5420784  0.014785411  0.017174659            5 
   25700   0.91471854   -6.3891941    4.5754607  0.014836124  0.017177773           14 
   25800   0.95921713   -6.3663281    4.6418809  0.014993155  0.017185174            8 
   25900   0.90034995   -6.3595914    4.6875727   0.01508228  0.017195369            6 
   26000   0.93301679   -6.3854437     4.688857  0.015028388   0.01720597            6 
   26100   0.96062106   -6.4204497    4.7169034  0.015060355  0.017214683            3 
   26200   0.93394283   -6.4150343    4.7665535  0.015160793  0.017225841            4 
   26300   0.94616294   -6.3707894    4.7836159  0.015157211  0.017236499            3 
   26400   0.94314748   -6.3602124     4.775413  0.015073904  0.017245663            3 
   26500   0.95162906   -6.3960586    4.8021289  0.015101034  0.017253415            4 
   26600   0.97586332   -6.4351452    4.8104745  0.015070409  0.017261158            2 
   26700   0.95199005   -6.4298789     4.848901  0.015133898  0.017268239            3 
   26800   0.92997784   -6.4847896    4.8421053  0.015056297  0.017274673            4 
   26900   0.94493818   -6.3865801     4.884876  0.015132825  0.017280401            3 
   27000   0.95832601   -6.4208545    4.9194606   0.01518352  0.017287668            5 
   27100   0.90696033   -6.3468616    4.9588577   0.01524864  0.017294997            9 
   27200   0.92354826   -6.4347116    4.9191702  0.015070987  0.017300449            5 
   27300   0.95345737   -6.3716538    4.9412976  0.015083326  0.017303663           10 
   27400   0.97275896    -6.365145    4.9750024  0.015130785   0.01730814            4 
   27500   0.90431688   -6.3755576    5.0034718  0.015162036  0.017314302            4 
   27600   0.91543614   -6.3871663    5.0309327  0.015190014  0.017321088            4 
   27700   0.94627414    -6.371741    5.0239548  0.015114184  0.017326634            4 
   27800   0.96916973   -6.3681846    5.0080197  0.015012049  0.017329107            8 
   27900    0.9421326   -6.3601336     5.027499  0.015016424  0.017330402            3 
   28000    1.0017636   -6.3084131    5.0467694  0.015020147  0.017332135            3 
   28100    1.0172222   -6.2901483    5.0288465  0.014913542  0.017333933           10 
   28200   0.93475119   -6.2657659    5.0465309  0.014912916  0.017332655            2 
   28300   0.94308487   -6.2975691      5.08697  0.014979299  0.017333044            5 
   28400   0.97541114    -6.301964    5.0902855  0.014936283  0.017332511           15 
   28500   0.95549182   -6.3330363    5.1032141  0.014921678  0.017330856            7 
   28600   0.95014342    -6.316484    5.0980702  0.014854517  0.017327576           11 
   28700   0.96338506   -6.2855354    5.1389842  0.014921557  0.017324015            5 
   28800   0.99827039   -6.2753555    5.1646052   0.01494388  0.017321434            1 
   28900   0.96028047   -6.3488978    5.1472544  0.014842141  0.017316759            2 
   29000   0.93770503   -6.3433951    5.1984471  0.014938066   0.01731301            9 
   29100    1.0458222   -6.3644759    5.2162083  0.014937595  0.017309518            3 
   29200   0.96492285   -6.3225136     5.200299  0.014841036  0.017306338            1 
   29300   0.98905603   -6.3413765    5.2383053  0.014898479  0.017302509            6 
   29400    0.9425879   -6.3015437    5.2786519  0.014962165  0.017299219            3 
   29500   0.95353031   -6.3724377     5.282574  0.014922525   0.01729578            2 
   29600   0.92745055   -6.3878983    5.3238524  0.014988323  0.017291898            2 
   29700   0.94970119   -6.3750289    5.3716402  0.015071942  0.017289952            1 
   29800   0.91833239   -6.4236496    5.3812372  0.015048202  0.017286553            2 
   29900    0.9222831   -6.3650225    5.4470335  0.015181252  0.017285207            4 
   30000    0.9304999   -6.3655519    5.4818069  0.015227241  0.017287025            2 
   30100    0.9505278   -6.4074644    5.4985895  0.015223116  0.017288866            1 
   30200   0.95519174   -6.3543805    5.5145984  0.015216883  0.017291096            4 
   30300   0.95210784    -6.297387    5.5192913  0.015179569    0.0172935            4 
   30400   0.98417732     -6.23216    5.5484995  0.015209702  0.017295848            4 
   30500    0.9898894   -6.2657681    5.5417957  0.015141518  0.017298239            5 
   30600   0.97382625   -6.3070039    5.5398894  0.015086845  0.017298119            6 
   30700   0.96470691    -6.349964    5.5274415  0.015003913  0.017296613            9 
   30800    0.9418765   -6.4138633    5.5577582  0.015037224  0.017293417           13 
   30900   0.91985461   -6.3969016    5.5970259   0.01509446  0.017289423            7 
   31000   0.93845284   -6.3522858    5.7098274  0.015348998  0.017289378            7 
   31100   0.96051425   -6.3853313    5.7550695  0.015420872  0.017293902            7 
   31200   0.94498167   -6.3709366      5.76512   0.01539829  0.017299553            5 
   31300    1.0128547    -6.395778    5.7494936  0.015307491  0.017303625            9 
   31400   0.94296735   -6.3624828    5.7465496  0.015250928  0.017306449            4 
   31500    0.9524859   -6.4054501    5.7168601  0.015123968  0.017306178            4 
   31600   0.97630937   -6.3874868    5.7784996  0.015238659  0.017304972           10 
   31700   0.95488265   -6.4045855    5.8450128  0.015365438   0.01730689            4 
   31800   0.93794934   -6.3048635    5.8458275  0.015319254   0.01730866            6 
   31900   0.91569321   -6.3230659    5.8430641  0.015264013   0.01730933            4 
   32000   0.95936726   -6.3462341    5.8556233  0.015249019  0.017308672            2 
   32100     0.976316   -6.3780234    5.8684789  0.015234888  0.017308642            7 
   32200   0.94614325   -6.4125415    5.8921959  0.015248954  0.017307205            7 
   32300    0.9598119   -6.3372087    5.9282022  0.015294639  0.017306692            3 
   32400   0.97735767   -6.3517244    5.9887513  0.015403167  0.017308152            4 
   32500   0.95484701   -6.3886176    6.0185948  0.015432294  0.017310996            2 
   32600   0.97542347   -6.4360473    6.0201446  0.015388917  0.017313546            2 
   32700   0.94743044   -6.3199913    6.0303843  0.015367951  0.017315478            3 
   32800    0.9554072   -6.3279115    6.0863592  0.015463311  0.017318167            4 
   32900    0.9436606   -6.3382273     6.075787  0.015389531  0.017321237            3 
   33000   0.91302489   -6.3495961    6.1547824   0.01554238  0.017324672            3 
   33100   0.95770341   -6.3761816    6.2061556  0.015624762  0.017330313            3 
   33200   0.93890753   -6.3115122    6.2504902  0.015688981  0.017338091            3 
   33300    0.9662613   -6.3955227    6.2824045  0.015721733  0.017346757            3 
   33400    0.9262696   -6.3107384    6.2548168   0.01560583  0.017354925            4 
   33500   0.97951923   -6.3629337      6.27529  0.015610174  0.017361146            9 
   33600   0.93662165   -6.3449865    6.3055733  0.015638823   0.01736687           10 
   33700   0.96500476   -6.3520062    6.3545757   0.01571359  0.017374154            3 
   33800   0.92203867   -6.3588942    6.3546571    0.0156673  0.017380918            4 
   33900   0.94334305   -6.3154754    6.4215719  0.015785575  0.017388058            4 
   34000   0.97044522   -6.3094911    6.4225222  0.015741476  0.017395331            5 
   34100    1.0044928   -6.4256004    6.4630606   0.01579438  0.017403228            5 
   34200   0.93444608   -6.3711037    6.4499144  0.015716165  0.017409693            3 
   34300   0.96821019   -6.3101224     6.509936  0.015816171  0.017416865            5 
   34400   0.96007766   -6.2720372    6.5252374  0.015807261  0.017425246            1 
   34500   0.96222438   -6.3820473    6.4959263  0.015690643  0.017431436            2 
   34600   0.91794409   -6.3173011     6.499821  0.015654675  0.017436134            2 
   34700   0.96727486   -6.3173412    6.5623948  0.015759834  0.017441378            2 
   34800   0.95635325    -6.345193    6.5638487  0.015718028  0.017446974            5 
   34900   0.93356888   -6.3379584    6.5880481  0.015730774  0.017451961            7 
   35000    1.0016936   -6.4211203    6.5938459  0.015699633  0.017457217            6 
   35100   0.95166033   -6.3165508    6.6173852  0.015710791  0.017462444            2 
   35200   0.97277796   -6.3586205    6.6251175  0.015684464  0.017466373            2 
   35300   0.92730907   -6.4005356    6.6200598  0.015628092  0.017469746            4 
   35400   0.92771098    -6.354507    6.6231673   0.01559126  0.017472118            2 
   35500   0.94608525   -6.3049745     6.655408  0.015623023  0.017473996            3 
   35600    1.0088302   -6.3657679    6.7241331  0.015740012  0.017477257            3 
   35700   0.95230124   -6.3872582    6.7396188   0.01573207  0.017481066            5 
   35800    0.9716696   -6.3496863    6.7387427  0.015686086  0.017483471            9 
   35900   0.99361539   -6.3183954    6.7961521  0.015775655  0.017487228            3 
   36000   0.96372183   -6.3699824    6.8228537  0.015793643  0.017491972            3 
   36100   0.97097454   -6.4337189    6.8071332  0.015713604  0.017495391            5 
   36200   0.97045371   -6.4144839    6.8673011  0.015808704  0.017499275            6 
   36300   0.97453777   -6.3662757    6.9385907  0.015928812  0.017505464            7 
   36400   0.96483369   -6.3451995    6.9491401  0.015909203  0.017512278            3 
   36500   0.94719736   -6.3750527    6.9263375  0.015813556  0.017516465            4 
   36600   0.93264941   -6.3291708    7.0040697  0.015947335  0.017521522            1 
   36700   0.94785737   -6.3313532    7.0535358  0.016016203  0.017527906            1 
   36800   0.94262299   -6.3120569    7.0810179  0.016034913   0.01753515            4 
   36900   0.94171757    -6.360751      7.08276  0.015995393  0.017542167            7 
   37000   0.91701787   -6.4362868    7.1175075  0.016030422  0.017548481            9 
   37100   0.93906711   -6.3593944    7.1444813  0.016047802  0.017554299            5 
   37200   0.94633643   -6.3989635    7.1304652  0.015973264  0.017559455            3 
   37300   0.89063093   -6.3481653    7.1032842  0.015869714    0.0175629            9 
   37400   0.97253267   -6.3539518    7.0872797  0.015791621   0.01756587           24 
   37500    0.9540233   -6.3906574    7.0375579  0.015639017  0.017566959           26 
   37600   0.96224719     -6.36347    7.0548637  0.015635779   0.01756626           14 
   37700   0.97009336   -6.3180974    7.1137238  0.015724411  0.017566791            6 
   37800   0.90946902   -6.3499295    7.1157615  0.015687305  0.017566913            2 
   37900   0.99832091   -6.3876011    7.1373339  0.015693346  0.017566039            3 
   38000   0.95025611   -6.3311519      7.20792  0.015806842  0.017566181            5 
   38100   0.97277573   -6.3155417     7.233417  0.015821122  0.017566944           10 
   38200   0.92300596   -6.3225404    7.2162633  0.015742284  0.017567689            4 
   38300   0.95906116   -6.3367689    7.2291305  0.015729178  0.017567094            7 
   38400     1.002504   -6.3588469    7.3004526  0.015842996  0.017567677            2 
   38500   0.94156288   -6.3625352    7.2698728  0.015735655  0.017568293            7 
   38600   0.93286379   -6.4345993    7.2608345  0.015675377  0.017566645            4 
   38700    0.9797163   -6.4529113    7.2853232  0.015687603  0.017564171            5 
   38800   0.93593433   -6.3284167    7.3424932   0.01576996  0.017563453            3 
   38900   0.95073127   -6.3567543    7.3297477  0.015702116  0.017562014            2 
   39000   0.95596299   -6.3632769      7.35433   0.01571438  0.017559461            3 
   39100   0.90458667    -6.376047    7.3792438  0.015727288  0.017557561            4 
   39200   0.95537793    -6.361411    7.4212726  0.015776515  0.017556861            3 
   39300   0.93132434   -6.3608463    7.4759226  0.015852253  0.017556785            7 
   39400   0.95749407   -6.4097517    7.5212856  0.015907964  0.017558263            6 
   39500   0.93857201   -6.3485597      7.54889  0.015925928  0.017559935            5 
   39600    0.9639118   -6.3271174    7.5948254  0.015982376  0.017563077            6 
   39700   0.95745204   -6.3529115    7.6481441  0.016054039  0.017566144            2 
   39800   0.95084066    -6.394242    7.6504491  0.016018528  0.017569902            3 
   39900   0.94752054   -6.4219918    7.6551545  0.015988209  0.017572012            7 
   40000   0.96311124   -6.4025241     7.656551  0.015951148  0.017573482            4 
   40100   0.98380985   -6.3067401    7.6896925  0.015980242  0.017575282            2 
   40200   0.94152783   -6.3610855     7.679573  0.015919513  0.017576445           11 
   40300   0.93259297   -6.4077471    7.6747552  0.015870048  0.017575772            5 
   40400   0.97423792    -6.395469     7.704417  0.015891949  0.017574814            2 
   40500   0.96546806   -6.3108728     7.703533  0.015850891  0.017574233            3 
   40600   0.93589649   -6.3552032    7.6671911  0.015737256  0.017572702            5 
   40700   0.92684087   -6.3566487    7.6534048  0.015670362  0.017570072            6 
   40800   0.92006058   -6.3874608    7.7114741   0.01575056  0.017567702            4 
   40900   0.94851984   -6.3047937    7.7507691  0.015792113  0.017566456            1 
   41000   0.97137662   -6.2363788    7.7947703  0.015843029  0.017566112            6 
   41100   0.96503665   -6.2897517    7.8258748  0.015867548  0.017566935            3 
   41200   0.93627419   -6.3130747    7.8397612  0.015857122  0.017567522            6 
   41300   0.91242734   -6.3896342    7.8688931  0.015877508  0.017567381            5 
   41400    0.9260298   -6.4005632    7.9087382   0.01591936  0.017566833            2 
   41500   0.96699384   -6.3982005    7.9633562  0.015990675  0.017567587            3 
   41600   0.84366858   -6.3575681    7.9652948  0.015956119  0.017568289            1 
   41700     0.927331   -6.4030804    8.0211427  0.016029462  0.017568966            2 
   41800   0.93278859   -6.3575574    8.0475927  0.016043845  0.017570091            3 
   41900   0.99367603   -6.3962922    8.0269052  0.015964409  0.017571001            4 
   42000   0.91425931   -6.3542199    8.0023651  0.015877708  0.017570845            5 
   42100    0.9009928   -6.3992168    8.0185265  0.015871984  0.017569776            3 
   42200   0.97944392   -6.4428537    8.0491485  0.015894843  0.017568564            3 
   42300   0.93225274   -6.3634456     8.107047   0.01597133  0.017568744            3 
   42400   0.99677179   -6.3576879    8.1436792  0.016005659  0.017569481            7 
   42500    0.9478892   -6.3914485    8.1821474  0.016043426  0.017570379            9 
   42600   0.93625684   -6.3590608    8.2084995  0.016057315  0.017571565           10 
   42700   0.97787449   -6.3591743    8.2455685  0.016092054  0.017573655           20 
   42800   0.92005132   -6.3329419    8.2790096  0.016119567  0.017576488            8 
   42900   0.97442376   -6.3761522    8.2634198  0.016051709  0.017578745            4 
   43000   0.98887425   -6.2954003    8.3165112   0.01611727  0.017581501            6 
   43100    1.0117607   -6.3709329    8.2463343  0.015944188  0.017583728            7 
   43200     1.000165   -6.4255774     8.235615  0.015886603  0.017582935           10 
   43300    0.9486008   -6.4120102    8.2615997  0.015899922  0.017582094            6 
   43400   0.93838822   -6.3387101    8.2553031  0.015851196  0.017580633           14 
   43500   0.96013475   -6.3061069    8.2917557  0.015884589  0.017579506            9 
   43600   0.95326408   -6.3144277    8.3692636  0.015996299  0.017579504            4 
   43700   0.95424197   -6.3751383     8.382199  0.015984361  0.017579408            4 
   43800   0.89246482    -6.406833    8.3619319  0.015909307  0.017577656           10 
   43900   0.89833667   -6.3677826    8.4235674  0.015990067  0.017575663            4 
   44000   0.94391604    -6.371936    8.4070908   0.01592252  0.017574196           15 
   44100   0.93276905   -6.3481904    8.4033623  0.015879369  0.017572223           11 
   44200   0.95759198   -6.3879528    8.4066406  0.015849624  0.017569519            6 
   44300   0.95742036   -6.4163783    8.4091424  0.015818552  0.017566259            3 
   44400   0.93964125   -6.3043644    8.5081772  0.015968801  0.017564313            2 
   44500   0.95352079   -6.3134087    8.5725054  0.016053381  0.017563895            4 
   44600   0.92611069   -6.3447714    8.5730309  0.016018368  0.017563813            4 
   44700   0.91033237   -6.3079307    8.5577834  0.015954107   0.01756254            3 
   44800   0.99598612   -6.3704357     8.593159  0.015984299  0.017561227            2 
   44900   0.90453825   -6.3700833    8.5833529  0.015930499  0.017558822            1 
   45000   0.96793628   -6.3740579     8.609248  0.015943052  0.017556585            7 
   45100   0.90479412   -6.3624335    8.6055188  0.015900811  0.017554292            4 
   45200   0.91723298   -6.3908146    8.6244681  0.015900568  0.017550999            7 
   45300   0.95778407   -6.3680118    8.6517727  0.015915697  0.017548641            6 
   45400   0.89938754   -6.3627985    8.6764343  0.015925907  0.017545904           12 
   45500   0.98098558   -6.4031151    8.7002705  0.015934561  0.017543321           11 
   45600   0.95189839   -6.3420862    8.6822193  0.015866629  0.017540634           10 
   45700   0.94744488     -6.38706    8.6802709  0.015828357  0.017537788            9 
   45800    1.0025857   -6.4166183    8.7806511  0.015976439    0.0175355            5 
   45900   0.94097704   -6.3975042    8.7807405  0.015941794   0.01753327            5 
   46000   0.89937251   -6.3802862    8.7882343  0.015920714  0.017530099            3 
   46100   0.95170958   -6.3397068    8.8091749  0.015924032  0.017526893            6 
   46200   0.98557647   -6.4202246    8.8096514  0.015890424  0.017524425            3 
   46300   0.94949412   -6.3989217    8.8111185  0.015858744  0.017521827            7 
   46400     0.976205   -6.4191283    8.7758428  0.015761212  0.017517598            4 
   46500   0.91934555   -6.4343807     8.838351  0.015839338   0.01751335            8 
   46600   0.92165352   -6.3690684    8.8544508  0.015834139  0.017509584            5 
   46700    0.9816769   -6.4087179    8.8456757  0.015784575  0.017505281            7 
   46800   0.94940558   -6.3805501    8.8836483  0.015818462  0.017501505            5 
   46900   0.97895774   -6.3568245    8.9041409  0.015821146  0.017498863            4 
   47000   0.94438787   -6.3337517    8.9910498  0.015941578  0.017496827            1 
   47100   0.95710635   -6.3425765    9.0424929  0.015998749   0.01749553            1 
   47200   0.92333157   -6.3373152    9.0707456  0.016014734  0.017494188            2 
   47300   0.92326215   -6.4074225    9.0271456  0.015904062  0.017491675            4 
   47400   0.98384501   -6.3726236    9.0779664  0.015959856  0.017489206            2 
   47500   0.91719598   -6.2976004    9.1076197   0.01597828   0.01748808            6 
   47600   0.98027682   -6.2967469    9.1549029  0.016027491  0.017487358            1 
   47700    1.0204892   -6.3569773    9.1499223  0.015985189  0.017487071            2 
   47800   0.93579494   -6.3301401    9.1191316  0.015898067  0.017485462            2 
   47900    1.0155753    -6.352883    9.1335506  0.015889963  0.017483848            3 
   48000   0.97548101   -6.3696396    9.1748934  0.015928634  0.017481935            6 
   48100    0.9542794   -6.3923583    9.1583887  0.015866924  0.017480093            3 
   48200   0.95112199   -6.4180843    9.1514654  0.015822035  0.017476981            7 
   48300   0.96890866   -6.3456793    9.1712845  0.015823472  0.017473918            8 
   48400   0.95196586   -6.2984621    9.1521227  0.015757787  0.017469956            3 
   48500   0.94898097   -6.3437593    9.1894736  0.015789473  0.017466269            1 
   48600   0.96317994   -6.3029681     9.250446  0.015861533  0.017463191            3 
   48700   0.96747583   -6.2986352    9.2388874  0.015809184  0.017459666            2 
   48800   0.94280857   -6.3402326    9.2358654  0.015771628  0.017455678            7 
   48900     0.929501    -6.379531    9.2445256  0.015754133  0.017451103            8 
   49000   0.94061217   -6.3336138    9.2453582  0.015723398  0.017445987            2 
   49100   0.96762467   -6.3579126    9.2738386  0.015739712  0.017441355            5 
   49200   0.97968893   -6.4139977    9.3165978  0.015780145  0.017436819            8 
   49300   0.96915852   -6.3229831    9.3771859  0.015850551  0.017432552            6 
   49400   0.93037074   -6.3268199    9.3890961  0.015838556  0.017428617            4 
   49500   0.97159464   -6.3511643    9.4093854  0.015840716  0.017424685            5 
   49600   0.93343312   -6.3851399    9.4064532  0.015803853   0.01742036            6 
   49700   0.92004656   -6.4173391    9.3964234  0.015755237  0.017415087            7 
   49800   0.94395732   -6.3655125    9.3859739  0.015706114  0.017409004            4 
   49900   0.96779684   -6.3734994    9.4391648  0.015763468  0.017403957            3 
   50000   0.94966107   -6.4162744    9.4724562  0.015787427    0.0173989            3 
   50100   0.92402202   -6.3534565    9.4858889  0.015778258  0.017393999            4 
   50200   0.96525392   -6.3502117    9.4640118  0.015710511   0.01738861            5 
   50300   0.91461954   -6.3657497    9.4140877  0.015596567  0.017382531           10 
   50400    0.9531712   -6.3666587    9.4492243  0.015623717  0.017375972            3 
   50500    0.9439173   -6.3610824    9.4645161  0.015618013  0.017369637            4 
   50600   0.93871319   -6.4000267    9.4640866   0.01558644  0.017363464            3 
   50700   0.98069814   -6.3811759    9.5323504    0.0156679  0.017357412            4 
   50800   0.95689819   -6.3969411    9.5824825  0.015719295  0.017352082            5 
   50900   0.99153895   -6.3633185    9.5123539  0.015573598  0.017346037           12 
   51000    0.9262242   -6.3351209    9.5929873  0.015674816  0.017340337            9 
   51100   0.96216161   -6.4695984    9.5943085  0.015646295  0.017334189            9 
   51200   0.95560658    -6.437675    9.6187207   0.01565547  0.017328177            6 
   51300   0.91500871   -6.4180333    9.6671967  0.015703698  0.017322007            5 
   51400   0.90969814   -6.4366837    9.6963476  0.015720408  0.017316192            1 
   51500   0.96079788   -6.4724756    9.7561127   0.01578659   0.01731096            5 
   51600   0.95962858   -6.3449858    9.8015587  0.015829391  0.017307065            7 
   51700   0.94328041   -6.3855418    9.7949695  0.015788152  0.017303425            3 
   51800   0.89014951   -6.3887348    9.7863036  0.015743732  0.017298401            6 
   51900   0.96702455   -6.4543868    9.8214754   0.01576987  0.017293778            5 
   52000   0.90642242   -6.4705163    9.8075199  0.015717179  0.017289546            6 
   52100   0.92681829   -6.4145004    9.8384678  0.015736513  0.017285585            5 
   52200   0.97148888   -6.4092804    9.9465518  0.015878914  0.017282163            2 
   52300   0.91373163   -6.3057315    9.9879426  0.015914504  0.017280213            3 
   52400   0.97050904   -6.3378369    9.9877486  0.015883824  0.017278552            3 
   52500   0.94003686   -6.3447646    10.084952  0.016007861  0.017277235            2 
   52600   0.97086082    -6.357517    10.109758  0.016016726  0.017276425            3 
   52700    0.9564422   -6.3400349    10.077185  0.015934827  0.017275261            1 
   52800   0.92214286   -6.3073494     10.07101  0.015894902  0.017273467            2 
   52900   0.93735188   -6.4167676    10.101956  0.015913604  0.017271283            3 
   53000   0.95190682   -6.3147872    10.160666  0.015975889  0.017269196            2 
   53100   0.91937615   -6.3513654    10.209258  0.016022062  0.017267809            2 
   53200   0.96492729   -6.4112777    10.190493  0.015962551  0.017266014            1 
   53300    0.9413921   -6.3854089    10.234262  0.016001036  0.017264077            3 
   53400   0.95059855   -6.3216435    10.311879  0.016092195  0.017263154            2 
   53500   0.99912893   -6.3329452    10.412371  0.016218646   0.01726365            5 
   53600   0.96245075   -6.3870239    10.431962  0.016218846  0.017264844            2 
   53700     0.914819   -6.4027038    10.491268  0.016280676   0.01726593            4 
   53800   0.93075467   -6.3483513    10.514632  0.016286605  0.017267657            3 
   53900   0.95111559    -6.304078    10.508643  0.016247129  0.017269498            2 
   54000   0.94310636   -6.3833246    10.523132  0.016239401  0.017270985            4 
   54100   0.92721108   -6.4068565    10.480159   0.01614319    0.0172716            9 
   54200   0.89026178   -6.4200833    10.419759  0.016020539  0.017270282            4 
   54300   0.96440877   -6.4461269    10.454434  0.016044251  0.017269281            2 
   54400   0.95163626    -6.386262    10.400442  0.015932049   0.01726733            3 
   54500   0.94952874   -6.3521626    10.441708  0.015965914  0.017265302            5 
   54600    0.9191123    -6.399366    10.478855  0.015993368  0.017263506            2 
   54700   0.96671949   -6.3739307    10.561592  0.016090176  0.017262496            8 
   54800   0.93770301   -6.4369156    10.580011  0.016088824  0.017261474            2 
   54900    0.9333391    -6.368173     10.60687  0.016100288  0.017260545            2 
   55000   0.96034681   -6.3131021    10.635847  0.016114919  0.017260377            2 
   55100   0.96447018   -6.3171158    10.583086  0.016005877  0.017259925            2 
   55200   0.95387931   -6.3391277    10.680508  0.016123956  0.017260207            2 
   55300   0.93287813   -6.2471412     10.68734  0.016105093  0.017260605            5 
   55400   0.98935522   -6.2805055    10.669146  0.016048655  0.017260969            5 
   55500   0.96412128   -6.3393254    10.719037   0.01609465  0.017260982            3 
   55600   0.95995734   -6.3007444    10.760627  0.016128038  0.017261518            6 
   55700   0.99384551   -6.2611127    10.793421  0.016148146  0.017262341            2 
   55800   0.94233638   -6.2821883    10.790633  0.016115043  0.017262767            7 
   55900   0.92510507   -6.2675008     10.68846    0.0159339  0.017261893            7 
   56000   0.91093099   -6.3429105    10.680976   0.01589431   0.01725959           11 
   56100   0.95354204   -6.3584302    10.780418  0.016013693  0.017257737            5 
   56200   0.95104523   -6.3913972    10.833427    0.0160638  0.017256378            8 
   56300   0.91868996   -6.3272891    10.848344  0.016057347    0.0172552            9 
   56400   0.99846993   -6.3877064    10.932538  0.016153277  0.017254372            9 
   56500   0.92874554   -6.3796331    10.985834  0.016203295  0.017254551            5 
   56600   0.94142519   -6.3385105    10.945335  0.016115039  0.017254663            6 
   56700   0.96769786   -6.3589992    10.978599  0.016135507   0.01725479           13 
   56800   0.93475836   -6.3625886    11.008565  0.016151064  0.017255104            5 
   56900   0.96072508   -6.3474884    11.039289  0.016167676  0.017255634            3 
   57000   0.95329438    -6.349639    11.067964  0.016181234  0.017256103            5 
   57100   0.95537944   -6.3433637    11.116011  0.016223017  0.017256398            9 
   57200   0.95778683   -6.3437905    11.049161  0.016097262  0.017256461           14 
   57300   0.98324567   -6.3909244    11.098454  0.016140858  0.017255908           16 
   57400   0.95270051   -6.3564595    11.140872   0.01617432  0.017255912           14 
   57500   0.92034504   -6.3711615    11.162985   0.01617824  0.017255951           14 
   57600   0.97702971   -6.3284439    11.195126  0.016196653   0.01725589            9 
   57700    0.9774296   -6.3900862    11.181427  0.016148797   0.01725614            5 
   57800   0.93478664   -6.3807307     11.19691  0.016143181  0.017255656            2 
   57900   0.96893735   -6.3502124    11.247665   0.01618835  0.017255668            6 
   58000   0.90114069   -6.2995757    11.242694  0.016153296  0.017255631            3 
   58100   0.94569484    -6.372725    11.250397  0.016136542  0.017254983            5 
   58200   0.91828794   -6.3611982    11.246983  0.016103927  0.017254555           12 
   58300   0.92262063    -6.427843    11.268253  0.016106708  0.017253623            2 
   58400   0.95520347   -6.3847182    11.302262  0.016127656  0.017252617            7 
   58500   0.98647682   -6.2795897    11.332997  0.016143871  0.017252426            6 
   58600    1.0223661   -6.3951524    11.324793  0.016104654  0.017252549            6 
   58700   0.94967451   -6.4050976    11.289354  0.016026908  0.017251525            4 
   58800   0.91263206   -6.4312506     11.30608  0.016023356  0.017249468            4 
   58900   0.98862252   -6.4250818    11.351298  0.016060127  0.017247471            6 
   59000   0.87377461   -6.3404554    11.373554  0.016064342   0.01724561            4 
   59100   0.94135262   -6.4140539    11.404944  0.016081422  0.017242957            1 
   59200   0.96806176   -6.3638614    11.441883  0.016106255  0.017241221            8 
   59300   0.92207914   -6.3833369    11.452195  0.016093584  0.017239803            5 
   59400   0.93820685   -6.3674803    11.413744  0.016012548  0.017238066            4 
   59500   0.92068831   -6.4391813    11.385001   0.01594538  0.017235825            3 
   59600   0.92644672   -6.3753804    11.485724  0.016059458  0.017233596            4 
   59700    0.9389062   -6.3600531    11.468411  0.016008391  0.017231647            4 
   59800   0.98978043   -6.3732554    11.442815  0.015945951  0.017229423            2 
   59900   0.97127425   -6.3130828    11.460815  0.015944372  0.017227052            2 
   60000   0.93167707   -6.3535951    11.507928  0.015983233  0.017224557            3 
   60100   0.96758126   -6.3590896    11.505942  0.015953885  0.017222185            1 
   60200   0.93013359   -6.3819842     11.53065  0.015961587  0.017219734            1 
   60300   0.92910765   -6.4897162    11.576147  0.015997991  0.017216858            1 
   60400   0.92816064   -6.4679303    11.628734  0.016044058  0.017214186            3 
   60500   0.94337012   -6.3714559    11.651677  0.016049142  0.017211803            2 
   60600   0.95857276   -6.3519357    11.642306  0.016009772  0.017209672            1 
   60700   0.89701822   -6.3374439     11.60289  0.015929283  0.017207118            2 
   60800   0.96008214   -6.4114752    11.600155  0.015899335  0.017203559            2 
   60900   0.98298056   -6.3471812    11.679795  0.015982205  0.017200617            3 
   61000   0.94575867   -6.3298472    11.713036  0.016001416  0.017198441            3 
   61100   0.90879779   -6.3636057    11.709697  0.015970672  0.017195932            2 
   61200   0.97935983    -6.366495    11.827303  0.016104716  0.017194221            6 
   61300   0.94501674   -6.2983165    11.867277  0.016132786  0.017193669            2 
   61400   0.98047094   -6.3292949    11.808426  0.016026637  0.017192654            3 
   61500   0.91620973   -6.3293793    11.833902  0.016035097  0.017190952            4 
   61600    0.9934894   -6.3718973    11.851064  0.016032284  0.017189248            4 
   61700   0.92218135   -6.2808799    11.931385  0.016114783  0.017188139            4 
   61800   0.93723177   -6.3914677    11.885329  0.016026603  0.017186773            4 
   61900   0.94832289   -6.4312588    11.939002  0.016072969  0.017185068            4 
   62000   0.98417695   -6.3751393    11.990856  0.016116742  0.017184217            9 
   62100   0.92430942   -6.3481308    11.925745  0.016003415  0.017182493            2 
   62200   0.92907123   -6.3415819    11.898148  0.015940713  0.017179744            5 
   62300   0.94702104   -6.2822998    11.940608   0.01597192  0.017177061            1 
   62400   0.92092749   -6.3168729    11.986876  0.016008114  0.017174583            8 
   62500   0.98981704    -6.360804    11.982482  0.015976642  0.017172408            1 
   62600   0.94701196    -6.367296    11.991702  0.015963395  0.017170208            2 
   62700    1.0201826   -6.4102106    12.018803  0.015973954  0.017167882            2 
   62800   0.94684449   -6.3958118     11.95139  0.015859063  0.017164987            1 
   62900    0.9336814   -6.3424406    12.034671  0.015944186  0.017162043            2 
   63000   0.96728258   -6.4009768    12.044119  0.015931374    0.0171594            2 
   63100   0.94494424   -6.3865873    12.035568  0.015894833  0.017156405            4 
   63200   0.96920358   -6.3901135    12.070202   0.01591535  0.017153177            7 
   63300   0.91580359   -6.3938399     12.09577  0.015923868  0.017149829            3 
   63400   0.94348649    -6.376328    12.135513   0.01595099  0.017146943            3 
   63500   0.91443621   -6.3683014    12.165518  0.015965247  0.017144245            3 
   63600   0.99077554     -6.40659    12.209538  0.015997822  0.017141898            4 
   63700   0.93456831   -6.3815944    12.338722  0.016141708  0.017140373            6 
   63800   0.88985739   -6.4158942     12.41273  0.016213075  0.017139275            6 
   63900   0.91910769   -6.3666831    12.363528  0.016123537  0.017137792            3 
   64000   0.94983511   -6.3311276    12.434875  0.016191243  0.017137007            4 
   64100   0.93704939   -6.4140853    12.400536  0.016121342  0.017136324            6 
   64200    0.9150123   -6.3450402    12.403869  0.016100556  0.017134925            1 
   64300   0.97832372   -6.3463306    12.504692  0.016206184  0.017134733            3 
   64400   0.96308059   -6.3548653    12.481194  0.016150613  0.017134568            4 
   64500   0.91926985   -6.3699977    12.511307  0.016164479  0.017134276            2 
   64600   0.96790421   -6.3750668    12.575983  0.016222888  0.017133991            2 
   64700   0.95791355   -6.2798943    12.586541  0.016211412  0.017134475            4 
   64800   0.96945422   -6.3168298    12.610071  0.016216655  0.017135103            1 
   64900   0.95070067   -6.3859469    12.635856  0.016224776  0.017135679            3 
   65000   0.96578649   -6.3614078    12.650726  0.016218879  0.017135864            1 
   65100   0.96429278   -6.3336122    12.721358   0.01628438  0.017136682            2 
   65200   0.94288008   -6.3333698    12.716161  0.016252761  0.017137461            6 
   65300   0.93202024    -6.336041    12.766372  0.016291949  0.017137878            1 
   65400   0.97436606   -6.3653966    12.784125   0.01628966   0.01713847            2 
   65500   0.93995281   -6.3586361    12.759423  0.016233363  0.017139273            4 
   65600    1.0230974   -6.4133408    12.817827  0.016282808  0.017140226            3 
   65700   0.99879966   -6.3049665    12.919324  0.016386763  0.017142015            3 
   65800   0.97827656   -6.3400098     12.92597  0.016370276   0.01714375            2 
   65900   0.93910508   -6.3539863    12.912482  0.016328379  0.017144703            2 
   66000   0.96652391   -6.3447977    12.923806  0.016317937  0.017145357            5 
   66100   0.93363351    -6.356786    12.905281  0.016269895  0.017146172            8 
   66200   0.98167431   -6.3613221    12.940781  0.016290006  0.017146859            9 
   66300   0.94227866   -6.3782772    12.944801  0.016270489  0.017147672            4 
   66400   0.95760753   -6.3113376    13.001299  0.016316891  0.017149056            5 
   66500   0.95212248   -6.3432741    13.010419  0.016303783  0.017150033            1 
   66600   0.92217771   -6.3871307    12.998172  0.016263979  0.017150506            2 
   66700   0.96327696   -6.3851743    13.034301  0.016284734  0.017150945            5 
   66800   0.96046442   -6.3993603    13.035183  0.016261456  0.017151505            5 
   66900   0.99888107   -6.3448466    13.009638  0.016205329  0.017151847            1 
   67000   0.99426433   -6.3406232    13.074951  0.016262376  0.017152682            2 
   67100    0.9581529   -6.3674224    13.040395  0.016195225  0.017153071            2 
   67200   0.94551649   -6.4391063     13.02762  0.016155283  0.017152645            2 
   67300    0.9596266   -6.4186712    13.077781  0.016193389  0.017151824            1 
   67400   0.97505923   -6.3775513    13.168177  0.016281129  0.017151657            4 
   67500   0.92094451    -6.390556    13.160598  0.016247652  0.017151556            2 
   67600   0.89095353   -6.4198411    13.169252  0.016234284  0.017150525            5 
   67700   0.94310583   -6.4140167    13.186204  0.016231172  0.017149806            8 
   67800   0.96227455   -6.4109978    13.235722  0.016268095   0.01714981            9 
   67900   0.91810007   -6.4238518    13.280324  0.016298876  0.017149782            5 
   68000   0.93818234     -6.41643    13.278067   0.01627214  0.017149932            3 
   68100   0.92795722    -6.385978    13.355901  0.016343491  0.017150062            5 
   68200   0.90478192   -6.3472066    13.411927  0.016387985  0.017150619            7 
   68300   0.88124478   -6.4009232    13.370707  0.016313698  0.017150816            5 
   68400   0.97766295   -6.4348762    13.338348  0.016250424  0.017150431            4 
   68500   0.94310045   -6.4533275    13.327218   0.01621316  0.017149241            3 
   68600   0.94284083   -6.4059921    13.361426  0.016231081  0.017148284            5 
   68700   0.96906746   -6.3647741    13.384677  0.016235658  0.017147711            4 
   68800    0.9312271   -6.3472798    13.407516  0.016239724   0.01714739            3 
   68900   0.95858329   -6.3223226    13.403529  0.016211332  0.017146847            5 
   69000   0.95793787   -6.3714813    13.425655  0.016214559  0.017146397            3 
   69100   0.91951693   -6.3866267    13.419537  0.016183716   0.01714548            2 
   69200   0.96160246   -6.3875904    13.412961   0.01615241  0.017144627            5 
   69300   0.99823075   -6.4341346    13.451039  0.016174891  0.017143789            3 
   69400   0.96425989   -6.3816818     13.47866   0.01618475  0.017143119            7 
   69500   0.93989783   -6.2944675    13.578362   0.01628101  0.017143023            7 
   69600   0.98838549   -6.3167753    13.620578  0.016308163  0.017143559            1 
   69700    0.9777169   -6.3615898    13.614499  0.016277497  0.017144065            2 
   69800   0.93630655   -6.3329354    13.665033  0.016314509  0.017144325            2 
   69900   0.95089267   -6.2727794    13.714445  0.016350078  0.017144886            8 
   70000   0.92312776   -6.3055059    13.705874  0.016316516  0.017145493            1 
   70100   0.90483949   -6.3875677    13.691932  0.016276666  0.017145252            7 
   70200   0.92098851   -6.3672331    13.721566  0.016288659  0.017144523            1 
   70300   0.94579143   -6.3422628    13.802045  0.016360888   0.01714446            3 
   70400   0.94259588   -6.3142004    13.780956  0.016312685  0.017144518            5 
   70500   0.95675412   -6.3741666    13.794362  0.016305393  0.017144442            4 
   70600   0.91617855   -6.3469032    13.814809  0.016306432   0.01714418            5 
   70700   0.95240817   -6.3291572    13.834134  0.016306146   0.01714432            5 
   70800    1.0003667    -6.316633    13.895375  0.016355196  0.017144818            3 
   70900   0.93120236    -6.315486    13.915173  0.016355398  0.017145413            6 
   71000    0.9412189   -6.3436797    13.895054  0.016308749  0.017145708            3 
   71100   0.93935663    -6.385075    13.915291   0.01630953  0.017145872            9 
   71200   0.89881158   -6.4311174     13.97716  0.016359036  0.017146238            6 
   71300    0.9433767   -6.4098593     14.03644  0.016405376  0.017146761            2 
   71400   0.92047829   -6.3853562    13.965466  0.016299563   0.01714672            1 
   71500   0.92798192   -6.4449564    13.964771  0.016275957  0.017145986            7 
   71600   0.94193093   -6.4070707    13.955531  0.016242471  0.017145245           11 
   71700     0.975464    -6.397474    14.021055  0.016295973  0.017144816            3 
   71800   0.95720424   -6.3572302    14.045597   0.01630176  0.017144415            7 
   71900   0.95120473   -6.3583061    14.026568  0.016257032   0.01714417            9 
   72000   0.93793617   -6.4028679    13.986826  0.016188456  0.017143265           20 
   72100   0.95581267   -6.3242033    14.071765  0.016264176  0.017142255            8 
   72200   0.98773584   -6.3509449    14.050316  0.016216893  0.017141615            4 
   72300   0.95081681   -6.4259806    14.081053   0.01622989  0.017140363            5 
   72400   0.92835662   -6.3801142    14.155734  0.016293432  0.017139263            1 
   72500    0.9498517   -6.3299028    14.242501   0.01637069  0.017138647            4 
   72600   0.92685039   -6.3503342    14.175266  0.016270966  0.017138388            1 
   72700   0.93864183   -6.4109396     14.17234  0.016245232  0.017137372            4 
   72800   0.91604472   -6.4144291    14.179425  0.016231026  0.017136416            5 
   72900   0.91173022   -6.3209282    14.210624  0.016244426  0.017135349            3 
   73000   0.97044288   -6.3368488    14.118522  0.016117034  0.017134155            4 
   73100    0.9490675   -6.3935962    14.167693  0.016151041  0.017132489            1 
   73200   0.97231655   -6.3510313    14.215895  0.016183851  0.017131017            2 
   73300   0.96018332   -6.3170813    14.284828  0.016240141  0.017130375            7 
   73400   0.91670472   -6.3440131    14.259194  0.016188913  0.017129317            5 
   73500   0.98340536   -6.4018198    14.301222  0.016214537  0.017128058            3 
   73600   0.92359128   -6.3866159    14.278741  0.016167052  0.017126886            6 
   73700   0.98305632   -6.4000192    14.292321  0.016160471  0.017124924            3 
   73800   0.93015663   -6.3050779    14.331879  0.016183242   0.01712368            3 
   73900   0.96673189   -6.4293254    14.259486  0.016079709  0.017122246            5 
   74000   0.92219788   -6.4357412    14.333562  0.016141399  0.017120312            8 
   74100   0.93996724   -6.4054937    14.469533   0.01627253  0.017119011            8 
   74200   0.97682088   -6.4210524    14.469369  0.016250414  0.017118346            9 
   74300   0.92734735   -6.4239747     14.45272   0.01620987  0.017117065            6 
   74400   0.96666305   -6.4034361    14.527981   0.01627238  0.017116149            2 
   74500   0.96488034   -6.3236021    14.531376  0.016254335  0.017115736            3 
   74600   0.96829085   -6.3894664      14.4998  0.016197274  0.017114814            7 
   74700    0.9317644    -6.436977    14.560804  0.016243646  0.017113624            1 
   74800   0.93716002   -6.4287423    14.608651  0.016275234  0.017112414            4 
   74900   0.92880726   -6.3328883    14.686097  0.016339672  0.017111909            6 
   75000   0.88525074    -6.339366    14.720535  0.016356149  0.017111551            6 
   75100   0.95664245   -6.4261107    14.669438  0.016277672   0.01711079           11 
   75200   0.93580718   -6.3506488    14.709661    0.0163006   0.01711016            2 
   75300   0.94913302   -6.3342489    14.777134  0.016353623  0.017109874            6 
   75400    0.9362065   -6.4100075    14.720795  0.016269667  0.017109248            3 
   75500   0.97082952   -6.3925442    14.788294   0.01632262  0.017108813            3 
   75600   0.91948065   -6.3403113    14.751599  0.016260581  0.017108214            3 
   75700   0.94732123   -6.3934176    14.792423  0.016284042  0.017107092           10 
   75800   0.95889816   -6.3183277    14.893174  0.016373322  0.017106643            3 
   75900   0.92561568   -6.3452675    14.915287  0.016376029  0.017106615            6 
   76000   0.94002528   -6.3893769    14.816863   0.01624656  0.017106151            1 
   76100   0.95858425   -6.3350504    14.857965   0.01627022  0.017105454            1 
   76200    0.9493857   -6.2891437    14.891047  0.016285047    0.0171051            2 
   76300   0.92870115    -6.362367    14.888241  0.016260638  0.017104612            7 
   76400   0.89823169   -6.2951621    14.863134   0.01621197  0.017103734            4 
   76500    1.0050354   -6.3747406    14.941251  0.016275872  0.017103279           11 
   76600   0.95326083   -6.4045791    14.960282  0.016275329  0.017102957            4 
   76700   0.92262871   -6.4333224    14.929374  0.016220528   0.01710202            5 
   76800   0.90930927   -6.4306701    14.946407  0.016217889  0.017100471           14 
   76900   0.97236111   -6.4241221    14.912676  0.016160247   0.01709934           16 
   77000   0.97382797    -6.433374    14.995906  0.016229335  0.017098322            9 
   77100   0.96266427    -6.363178    15.049732  0.016266464  0.017098098            4 
   77200   0.99029104   -6.3295994    15.102881  0.016302764  0.017097999            5 
   77300   0.92327782   -6.3468103    15.097261  0.016275615  0.017097664           14 
   77400   0.96204753   -6.4080565    15.064087  0.016218871  0.017097018           13 
   77500   0.90562483   -6.4450264    15.076183  0.016210949  0.017096175            6 
   77600   0.98136934   -6.4489773    15.160939  0.016281077  0.017095393            4 
   77700   0.92368817   -6.3979989    15.135234  0.016232554  0.017094935            3 
   77800    0.9389924   -6.4686212      15.0491   0.01611943  0.017093665            4 
   77900   0.94023509   -6.3820219    15.193805  0.016253535  0.017092536            4 
[...]
   82800   0.94671432   -6.3557561    16.431157  0.016536994  0.017066921            2 
   82900   0.92888768   -6.3660577    16.416009  0.016501818  0.017067755            5 
   83000   0.99733121   -6.3715686    16.450061  0.016516125   0.01706874            4 
   83100    1.0141607   -6.3560426    16.410773  0.016456852  0.017069956            2 
   83200   0.92294967   -6.3116176    16.361749   0.01638797  0.017070685            2 
   83300   0.97579604   -6.2907503    16.471657  0.016478248  0.017071157            1 
   83400   0.95305758   -6.2909068    16.465718  0.016452556  0.017072061            4 
   83500   0.95585593   -6.3622429    16.450043  0.016417209   0.01707257            7 
   83600    0.9170722   -6.4053918    16.455318  0.016402829  0.017072694            6 
   83700   0.93697013   -6.3927947     16.53914  0.016466686  0.017072698            8 
   83800   0.96080671   -6.3402322     16.54092  0.016448807  0.017073262            1 
   83900   0.96159058   -6.3488963    16.506503  0.016395016  0.017073599            2 
   84000   0.94889386   -6.3243699    16.555933  0.016424537  0.017074131            3 
   84100   0.93224511    -6.325315    16.542383  0.016391581   0.01707448            7 
   84200   0.96847716   -6.4113734    16.479694  0.016310069  0.017074389            7 
   84300    0.9784004    -6.351187    16.589414  0.016399183  0.017074302            5 
   84400   0.97565542   -6.3269741    16.619211  0.016409173  0.017074637            2 
   84500   0.96579775   -6.3856368    16.562942  0.016334262  0.017074643            5 
   84600   0.94126779   -6.3806582    16.655153  0.016405785  0.017074479            5 
   84700   0.96465516   -6.3672726    16.645551  0.016376968  0.017074454            2 
   84800   0.92602683   -6.3994515    16.675513    0.0163871  0.017074235            6 
   84900   0.93402133   -6.3243014    16.792713  0.016482835  0.017074623            8 
   85000   0.94732572   -6.3324268     16.73032  0.016402275   0.01707495            2 
   85100   0.94372727   -6.4249369    16.714055  0.016367073  0.017074632            2 
   85200   0.96953032   -6.3995115    16.771987  0.016404525  0.017074558            2 
   85300   0.91488344   -6.3513483      16.8129  0.016425264  0.017074434            1 
   85400     0.985179   -6.3615779    16.781115  0.016375015  0.017074296            3 
   85500   0.95185708   -6.3676715    16.728633  0.016304711  0.017073913            2 
   85600   0.95354241   -6.3490748    16.795463  0.016350723   0.01707358            5 
   85700   0.99442324   -6.3804848    16.824334  0.016359718  0.017073528            2 
   85800   0.93351623   -6.3603537    16.831058  0.016347181  0.017073327            4 
   85900   0.97409106    -6.321662    16.890338   0.01638566  0.017073414            3 
   86000   0.95580196   -6.3595939    16.867793  0.016344761   0.01707342            2 
   86100   0.92963577   -6.3041678    16.900838  0.016357761  0.017073147            2 
   86200    1.0019018   -6.2845011    16.968826  0.016404511  0.017073478            2 
   86300   0.95417496   -6.2923118    16.976942   0.01639334   0.01707388            2 
   86400    0.9546306   -6.4124554    16.970798  0.016368439  0.017073567            2 
   86500   0.97400969   -6.3498229    16.882111  0.016264076  0.017072888            2 
   86600   0.93763635   -6.4009693     16.90134  0.016263799  0.017072088            3 
   86700   0.93240881   -6.3398458    16.972303  0.016313248  0.017071018            6 
   86800   0.96752489   -6.3681655    16.954416  0.016277281   0.01707033           11 
   86900   0.91199478   -6.3574008    16.915503  0.016221234   0.01706909            7 
   87000   0.99793953   -6.3563281    17.003467  0.016286846  0.017068085            4 
   87100   0.95177276    -6.361115    17.022759  0.016286604  0.017067347            3 
   87200   0.93396685   -6.4195214    16.950292  0.016198673  0.017065919            3 
   87300   0.93355757    -6.389875    16.921757   0.01615288  0.017064118            2 
   87400   0.94799663   -6.3438427    16.980365  0.016190279  0.017062624            3 
   87500   0.97297799    -6.315605    16.974867   0.01616654  0.017061186            1 
   87600   0.93826649   -6.3785984    16.964025  0.016137771   0.01705961            3 
   87700    1.0164278   -6.4132795    17.067445  0.016217641  0.017058238            2 
   87800   0.95512384   -6.3837826    17.001934  0.016136991  0.017056747            4 
   87900   0.94285361   -6.3378182    17.033036  0.016148119  0.017054996            4 
   88000    1.0211183   -6.3416687    17.069167  0.016163984  0.017053516            5 
   88100   0.96156162   -6.3248658    17.098469  0.016173353  0.017052463            3 
   88200   0.98347908    -6.424044    17.133436  0.016188054  0.017050918            5 
   88300    0.9348727   -6.4073583    17.098916  0.016137142   0.01704904            7 
   88400   0.95377535   -6.3718275    17.126727  0.016145105  0.017047142            2 
   88500   0.97235241   -6.3263802    17.226047  0.016220384  0.017045576            4 
   88600   0.97971131   -6.2514174    17.255378  0.016229663  0.017044788            5 
   88700   0.96634104   -6.3339725    17.215083  0.016173509  0.017043533            1 
   88800   0.92421614   -6.3399864    17.234579  0.016173591  0.017042046            2 
   88900   0.95310606   -6.3785758    17.290527  0.016207843  0.017040572            2 
   89000   0.93771494   -6.3538372    17.376053  0.016269713  0.017039401            1 
   89100   0.91542845   -6.3553273     17.42914  0.016301104  0.017038168            5 
   89200   0.93675449   -6.3209743     17.44602  0.016298598  0.017036985            2 
   89300   0.97574707   -6.3111685    17.522768  0.016351967  0.017036389            6 
   89400      0.93574   -6.3339144    17.583249  0.016390053  0.017035999            5 
   89500   0.96555977   -6.3436362    17.522249  0.016314943  0.017035689            3 
   89600   0.98881055   -6.3717327    17.457211  0.016236245  0.017035198            3 
   89700   0.95343287   -6.4290061    17.433348  0.016195975  0.017034245            6 
   89800   0.94463457   -6.3650729    17.462496  0.016204988  0.017033041            5 
   89900   0.96276844   -6.3634172    17.515819  0.016236391  0.017032168            3 
   90000    1.0547086   -6.3711104    17.478384  0.016183689  0.017031425            9 
   90100   0.94564784   -6.3365656    17.471967  0.016159791  0.017030496            8 
   90200    0.9683493   -6.3959305     17.53259  0.016197884  0.017029411            4 
   90300   0.99738547   -6.3691469    17.644756  0.016283459  0.017028279            7 
   90400   0.93748775    -6.339551     17.68737  0.016304729  0.017027596           11 
   90500   0.94321381   -6.3804355    17.623217   0.01622764  0.017026304            9 
   90600   0.91943321   -6.3593699    17.618445  0.016205339   0.01702491           11 
   90700   0.92117088   -6.3496034    17.608453  0.016178292   0.01702347           12 
   90800   0.99290807   -6.3943047    17.673595   0.01622026  0.017022187            7 
   90900   0.90605742   -6.3647481    17.639706  0.016171348  0.017020714            4 
   91000    0.9169989   -6.3353571     17.65514  0.016167711  0.017018841            4 
   91100   0.97092826    -6.336206    17.708472  0.016198749  0.017017559            3 
   91200   0.95411583   -6.3236361    17.718343  0.016190006  0.017016587            4 
   91300   0.97794784   -6.3276281    17.779172  0.016227795  0.017015493            5 
   91400    0.9319464   -6.2929244    17.875714  0.016298062  0.017014805            9 
   91500   0.96421007    -6.371237    17.826499  0.016235427   0.01701395           10 
   91600   0.92465032   -6.3318026    17.816384  0.016208501  0.017012843            8 
   91700   0.94515307    -6.330361    17.850797  0.016222098  0.017011682            4 
   91800   0.97232392   -6.3440328    17.797216  0.016155788  0.017010363            4 
   91900   0.93167975   -6.3588935    17.752266  0.016097448  0.017008517            2 
   92000    0.9825637   -6.3966716    17.919803  0.016231706  0.017006942            6 
   92100   0.92479669   -6.3138858    17.951211    0.0162425  0.017005853            2 
   92200   0.98516303   -6.4352416    17.975478  0.016246816   0.01700469            2 
   92300    0.9325753   -6.4371521    17.947936  0.016204348  0.017003152            2 
   92400   0.96299538   -6.4246257    18.036678  0.016266845  0.017001591            3 
   92500   0.98374272   -6.4085711    18.121254  0.016325454  0.017000713            3 
   92600   0.88136743     -6.35403    18.116482   0.01630353  0.016999756            8 
   92700   0.96308644   -6.3677418    18.174642  0.016338226  0.016998915            3 
   92800   0.94628267   -6.3184446    18.208517  0.016351039  0.016998478            3 
   92900   0.93338621   -6.3126465    18.240871  0.016362461  0.016998033            2 
   93000   0.92112557   -6.3686983    18.130525   0.01624599  0.016997101            5 
   93100   0.89377598   -6.3546991    18.081603   0.01618475  0.016995441            5 
   93200   0.97343756   -6.3598483    18.074035  0.016160618  0.016994063            2 
   93300   0.97261614   -6.3496119     18.18401  0.016241524  0.016993018            2 
   93400    1.0001304    -6.264672    18.338096  0.016361613  0.016992539            3 
   93500   0.97475623   -6.2749288    18.433057   0.01642875   0.01699301            4 
   93600   0.96516486   -6.2839927    18.437992  0.016415591  0.016993379            3 
   93700   0.96920386   -6.3771859    18.370803  0.016338316  0.016993444            3 
   93800    0.9482627   -6.3347794    18.282561  0.016242502  0.016992801            7 
   93900   0.90528872   -6.3101452    18.356224  0.016290578  0.016992038            2 
   94000   0.95845872   -6.3029362    18.384289  0.016298129  0.016991488            2 
   94100    0.9143593   -6.3693224    18.317394  0.016221568  0.016990649            7 
   94200   0.91849778   -6.3632135    18.323281  0.016209555   0.01698907            2 
   94300   0.95838927    -6.338288    18.378768  0.016241399  0.016987811            3 
   94400   0.92416689   -6.3372849    18.384403   0.01622917  0.016986786            3 
   94500   0.94002519   -6.3603084    18.338594  0.016171599  0.016985468            3 
   94600   0.98066449   -6.3137686    18.432378  0.016237119  0.016984377            4 
   94700   0.96664764   -6.3103534    18.490794  0.016271378  0.016983841            3 
   94800   0.97578793   -6.3701525    18.522208  0.016281829  0.016983444            4 
   94900   0.91429921   -6.4321229     18.57092  0.016307446  0.016982897            5 
   95000   0.90122082   -6.3576826    18.551376  0.016273137  0.016982073            5 
   95100   0.95981923   -6.3548492    18.603562  0.016301755  0.016981445            3 
   95200   0.99221032   -6.3862337    18.680421  0.016351909  0.016981076            2 
   95300   0.92422669   -6.3948439    18.662888   0.01631942  0.016980434            3 
   95400   0.97115713   -6.4009703    18.658861  0.016298795    0.0169797            4 
   95500   0.98097166    -6.342036    18.760703  0.016370596  0.016979212            6 
   95600    0.9633789   -6.3801087    18.819484   0.01640471  0.016979046            4 
   95700   0.93457783   -6.3906383    18.797432  0.016368366  0.016978788            3 
   95800   0.92711953   -6.4010484    18.804352    0.0163573  0.016978454            5 
   95900   0.97798012    -6.359282     18.77809  0.016317423  0.016978071            2 
   96000   0.98725583   -6.3860506    18.708872   0.01624034  0.016977714            5 
   96100   0.92713801   -6.3762468     18.77947   0.01628466  0.016977095            3 
   96200   0.98072836   -6.4137586    18.909495  0.016380367  0.016976687            6 
   96300   0.99397984   -6.4001553    18.902547  0.016357344  0.016976325            3 
   96400   0.91492318   -6.3742174    18.914883  0.016351039  0.016975849            4 
   96500   0.91891291   -6.3354168    18.967168  0.016379247  0.016975459            3 
   96600   0.96839091   -6.3805737    18.952052  0.016349252  0.016975196            6 
   96700   0.95881214   -6.4219682     18.93428  0.016317028  0.016974793            6 
   96800   0.94181875   -6.4613446    18.901042  0.016271558  0.016974056           15 
   96900   0.95301156   -6.3988963     19.02176  0.016358583  0.016973348            1 
   97000   0.94311955   -6.3796845     19.08022  0.016391941  0.016973157            2 
   97100   0.96926146   -6.3420667    19.179115  0.016459934  0.016973138            6 
   97200    0.9740945   -6.3389857    19.111449  0.016384987  0.016973157            1 
   97300   0.96331068   -6.3566107    19.045425  0.016311601  0.016972887            2 
   97400   0.94608129    -6.361438    19.013822  0.016267814  0.016972149            3 
   97500   0.95349725   -6.3447038    19.209068  0.016418007    0.0169717            2 
   97600   0.90846914   -6.3771544    19.206406  0.016398912  0.016971544            2 
   97700   0.91823143   -6.3514153    19.235362  0.016406825  0.016971229            2 
   97800   0.98848639   -6.4040782    19.375967  0.016509856  0.016971442            2 
   97900   0.92180704   -6.3803437    19.281195  0.016412321  0.016971584            1 
   98000    0.9400762   -6.4900615    19.235675  0.016356867  0.016971172            3 
   98100     0.940747   -6.4093875    19.253245  0.016355118  0.016970763            3 
   98200    0.8983788   -6.3274718    19.308583  0.016385423  0.016970544            2 
   98300   0.91627896   -6.3283026    19.339614  0.016395061  0.016970291            1 
   98400   0.96650262   -6.3648722    19.351587  0.016388539  0.016970309            1 
   98500    1.0004458    -6.391268     19.33209  0.016355406  0.016970223            2 
   98600   0.92013472   -6.3101594    19.417909  0.016411349  0.016970325            6 
   98700     0.967042   -6.3010413    19.424989    0.0164007  0.016970473            3 
   98800   0.96640367   -6.4159158    19.462295  0.016415566  0.016970682            2 
   98900   0.95846825   -6.3383511    19.443661  0.016383266  0.016970678            7 
   99000   0.96053275   -6.3407542     19.54626  0.016453081  0.016971098            3 
   99100   0.93606802   -6.3613054    19.523038  0.016416951    0.0169714            6 
   99200    1.0172502   -6.4045069    19.477502  0.016362149  0.016971412            5 
   99300   0.91253506   -6.3308035     19.51521  0.016377316  0.016971516            3 
   99400    1.0012376   -6.3486514    19.558439  0.016397082  0.016971882            6 
   99500   0.96742869   -6.3156886    19.574794    0.0163943  0.016972376            6 
   99600   0.97243383   -6.4342854    19.580127  0.016382302  0.016972521           10 
   99700   0.90750672    -6.397217    19.527032  0.016321491  0.016971959            4 
   99800   0.96676742   -6.4249455     19.60031  0.016366324  0.016971449           11 
   99900    0.9624894   -6.4546498    19.697357  0.016430895  0.016971211            2 
  100000   0.91922391   -6.4212381    19.576107  0.016313423  0.016970718            3 
  100100     0.900057   -6.4452687    19.493762  0.016228573  0.016969649            5 
  100200   0.92392225   -6.3602901    19.598456  0.016299448  0.016968746           13 
  100300   0.92837307   -6.3456725    19.655064   0.01633023  0.016967929            3 
  100400   0.94521998   -6.3557627    19.674341  0.016329964  0.016967025            5 
  100500   0.91283974   -6.3942171     19.64015  0.016285365  0.016965928            7 
  100600   0.92479036   -6.3841848    19.695603  0.016315112  0.016964902            4 
  100700   0.98303892   -6.3572779    19.702338  0.016304484  0.016963933            3 
  100800   0.94424179   -6.4115784    19.652167  0.016246831  0.016963087            2 
  100900   0.96379432   -6.4265714    19.634586  0.016216209  0.016961656            1 
  101000   0.93382491   -6.2947934    19.743368  0.016289907  0.016960542            1 
  101100   0.97905182   -6.3300054    19.703559  0.016240981  0.016959749            2 
  101200   0.94316829    -6.350971    19.739128  0.016254223  0.016958923            7 
  101300   0.95202346    -6.387547    19.824959  0.016308785  0.016958159            4 
  101400   0.96334269   -6.3482774     19.90792  0.016360881  0.016957665            3 
  101500   0.92426703   -6.2798636    19.983374  0.016406711  0.016957315            7 
  101600   0.97596496   -6.3696967    19.965678  0.016376048  0.016957068            2 
  101700   0.94170087   -6.4201428    19.864763  0.016277255  0.016956277            4 
  101800   0.96813284   -6.3925958    19.891275  0.016282969  0.016955658            4 
  101900   0.93447768   -6.3738683    19.949072  0.016314256  0.016955108            9 
  102000   0.97632565   -6.3748209    19.860394  0.016225812  0.016954491            6 
  102100    1.0103986    -6.353534    20.007272  0.016329801  0.016954106            6 
  102200   0.95450165   -6.3445167    20.080192  0.016373281  0.016953869            6 
  102300   0.95817659   -6.3727944    20.103649  0.016376384  0.016953817            3 
  102400   0.92121815   -6.3862483    20.028928  0.016299583  0.016953386            3 
  102500   0.96053089   -6.3446989    20.132468   0.01636786  0.016953074            2 
  102600    1.0053404   -6.3660828    20.199065  0.016405998  0.016953108            2 
  102700    0.9234715   -6.3575122    20.179529  0.016374172  0.016953019            1 
  102800   0.98787311   -6.3912282    20.229647   0.01639887  0.016952927            2 
  102900   0.95300803   -6.3389591    20.270253  0.016415819  0.016953057            2 
  103000   0.94346817   -6.3572348    20.283096  0.016410272  0.016953222            2 
  103100   0.98033704   -6.3140461    20.507633  0.016575843  0.016953768            3 
  103200   0.90883648   -6.2684517    20.571404  0.016611276  0.016954761            3 
  103300   0.93281961   -6.3538369    20.559473   0.01658557  0.016955575            3 
  103400    0.9645554   -6.4190725    20.532685  0.016547941  0.016956078            5 
  103500   0.92984744   -6.4186003    20.496585  0.016502887  0.016956521            9 
  103600   0.98049991   -6.4188076    20.552578  0.016531996  0.016957026           10 
  103700   0.91573731   -6.3799047    20.690803  0.016627132  0.016957894           12 
  103800   0.96323399   -6.4461172    20.615941  0.016551012  0.016958477            2 
  103900   0.93746183   -6.4118394    20.607741  0.016528505  0.016958821            4 
  104000   0.92826742    -6.327827    20.655509  0.016550889  0.016959266            2 
Loop time of 184.283 on 12 procs for 100000 steps with 864 atoms

Performance: 93768.802 tau/day, 542.644 timesteps/s
99.4% CPU use with 12 MPI tasks x no OpenMP threads

MPI task timing breakdown:
Section |  min time  |  avg time  |  max time  |%varavg| %total
---------------------------------------------------------------
Pair    | 9.3109     | 9.9008     | 10.543     |  11.6 |  5.37
Neigh   | 0.98444    | 1.0207     | 1.0735     |   2.4 |  0.55
Comm    | 5.5758     | 6.2798     | 6.9455     |  16.0 |  3.41
Output  | 2.116      | 2.1169     | 2.1239     |   0.1 |  1.15
Modify  | 163.62     | 163.98     | 164.36     |   2.0 | 88.98
Other   |            | 0.9828     |            |       |  0.53

Nlocal:        72.0000 ave          79 max          69 min
Histogram: 2 2 3 1 1 1 1 0 0 1
Nghost:        1533.17 ave        1551 max        1517 min
Histogram: 2 0 1 2 2 2 0 0 1 2
Neighs:        7963.25 ave        8543 max        7136 min
Histogram: 2 0 0 1 1 2 2 0 1 3
FullNghs:      15926.8 ave       17534 max       15144 min
Histogram: 2 2 3 1 1 2 0 0 0 1

Total # of neighbors = 191122
Ave neighs/atom = 221.20602
Neighbor list builds = 5418
Dangerous builds = 0

#clear
#
#next RN
#
#jump SELF



Total wall time: 0:03:05
